<?xml version="1.0"?>
<VTKFile type="UnstructuredGrid" version="0.1" byte_order="LittleEndian" header_type="UInt32" compressor="vtkZLibDataCompressor">
  <UnstructuredGrid>
    <Piece NumberOfPoints="200" NumberOfCells="486">
      <PointData>
        <DataArray type="Float64" Name="z0" format="ascii" RangeMin="0" RangeMax="30">
          0 3 2 5 4 7
          6 9 8 11 10 13
          12 15 14 17 16 19
          18 21 1 4 3 6
          5 8 7 10 9 12
          11 14 13 16 15 18
          17 20 19 22 2 5
          4 7 6 9 8 11
          10 13 12 15 14 17
          16 19 18 21 20 23
          3 6 5 8 7 10
          9 12 11 14 13 16
          15 18 17 20 19 22
          21 24 4 7 6 9
          8 11 10 13 12 15
          14 17 16 19 18 21
          20 23 22 25 5 8
          7 10 9 12 11 14
          13 16 15 18 17 20
          19 22 21 24 23 26
          6 9 8 11 10 13
          12 15 14 17 16 19
          18 21 20 23 22 25
          24 27 7 10 9 12
          11 14 13 16 15 18
          17 20 19 22 21 24
          23 26 25 28 8 11
          10 13 12 15 14 17
          16 19 18 21 20 23
          22 25 24 27 26 29
          9 12 11 14 13 16
          15 18 17 20 19 22
          21 24 23 26 25 28
          27 30
        </DataArray>
        <DataArray type="Float64" Name="ks" format="ascii" RangeMin="10" RangeMax="10">
          10 10 10 10 10 10
          10 10 10 10 10 10
          10 10 10 10 10 10
          10 10 10 10 10 10
          10 10 10 10 10 10
          10 10 10 10 10 10
          10 10 10 10 10 10
          10 10 10 10 10 10
          10 10 10 10 10 10
          10 10 10 10 10 10
          10 10 10 10 10 10
          10 10 10 10 10 10
          10 10 10 10 10 10
          10 10 10 10 10 10
          10 10 10 10 10 10
          10 10 10 10 10 10
          10 10 10 10 10 10
          10 10 10 10 10 10
          10 10 10 10 10 10
          10 10 10 10 10 10
          10 10 10 10 10 10
          10 10 10 10 10 10
          10 10 10 10 10 10
          10 10 10 10 10 10
          10 10 10 10 10 10
          10 10 10 10 10 10
          10 10 10 10 10 10
          10 10 10 10 10 10
          10 10 10 10 10 10
          10 10 10 10 10 10
          10 10 10 10 10 10
          10 10 10 10 10 10
          10 10 10 10 10 10
          10 10
        </DataArray>
      </PointData>
      <CellData>
      </CellData>
      <Points>
        <DataArray type="Float32" Name="Points" NumberOfComponents="3" format="ascii" RangeMin="0" RangeMax="1307.6696831">
          0 0 0 0 0 30
          0 100 20 0 100 50
          0 200 40 0 200 70
          0 300 60 0 300 90
          0 400 80 0 400 110
          0 500 100 0 500 130
          0 600 120 0 600 150
          0 700 140 0 700 170
          0 800 160 0 800 190
          0 900 180 0 900 210
          100 0 10 100 0 40
          100 100 30 100 100 60
          100 200 50 100 200 80
          100 300 70 100 300 100
          100 400 90 100 400 120
          100 500 110 100 500 140
          100 600 130 100 600 160
          100 700 150 100 700 180
          100 800 170 100 800 200
          100 900 190 100 900 220
          200 0 20 200 0 50
          200 100 40 200 100 70
          200 200 60 200 200 90
          200 300 80 200 300 110
          200 400 100 200 400 130
          200 500 120 200 500 150
          200 600 140 200 600 170
          200 700 160 200 700 190
          200 800 180 200 800 210
          200 900 200 200 900 230
          300 0 30 300 0 60
          300 100 50 300 100 80
          300 200 70 300 200 100
          300 300 90 300 300 120
          300 400 110 300 400 140
          300 500 130 300 500 160
          300 600 150 300 600 180
          300 700 170 300 700 200
          300 800 190 300 800 220
          300 900 210 300 900 240
          400 0 40 400 0 70
          400 100 60 400 100 90
          400 200 80 400 200 110
          400 300 100 400 300 130
          400 400 120 400 400 150
          400 500 140 400 500 170
          400 600 160 400 600 190
          400 700 180 400 700 210
          400 800 200 400 800 230
          400 900 220 400 900 250
          500 0 50 500 0 80
          500 100 70 500 100 100
          500 200 90 500 200 120
          500 300 110 500 300 140
          500 400 130 500 400 160
          500 500 150 500 500 180
          500 600 170 500 600 200
          500 700 190 500 700 220
          500 800 210 500 800 240
          500 900 230 500 900 260
          600 0 60 600 0 90
          600 100 80 600 100 110
          600 200 100 600 200 130
          600 300 120 600 300 150
          600 400 140 600 400 170
          600 500 160 600 500 190
          600 600 180 600 600 210
          600 700 200 600 700 230
          600 800 220 600 800 250
          600 900 240 600 900 270
          700 0 70 700 0 100
          700 100 90 700 100 120
          700 200 110 700 200 140
          700 300 130 700 300 160
          700 400 150 700 400 180
          700 500 170 700 500 200
          700 600 190 700 600 220
          700 700 210 700 700 240
          700 800 230 700 800 260
          700 900 250 700 900 280
          800 0 80 800 0 110
          800 100 100 800 100 130
          800 200 120 800 200 150
          800 300 140 800 300 170
          800 400 160 800 400 190
          800 500 180 800 500 210
          800 600 200 800 600 230
          800 700 220 800 700 250
          800 800 240 800 800 270
          800 900 260 800 900 290
          900 0 90 900 0 120
          900 100 110 900 100 140
          900 200 130 900 200 160
          900 300 150 900 300 180
          900 400 170 900 400 200
          900 500 190 900 500 220
          900 600 210 900 600 240
          900 700 230 900 700 260
          900 800 250 900 800 280
          900 900 270 900 900 300
        </DataArray>
      </Points>
      <Cells>
        <DataArray type="Int64" Name="connectivity" format="ascii" RangeMin="0" RangeMax="199">
          37 36 17 38 2 1
          0 20 22 21 20 40
          15 34 16 36 42 41
          40 60 62 61 60 80
          22 3 21 23 24 5
          23 25 44 25 43 45
          26 7 25 27 30 11
          29 31 4 3 2 22
          1 20 2 22 21 20
          1 22 3 1 2 22
          21 1 3 22 42 23
          41 43 6 5 4 24
          3 22 4 24 23 22
          3 24 5 3 4 24
          23 3 5 24 8 7
          6 26 5 24 6 26
          25 24 5 26 7 5
          6 26 25 5 7 26
          82 81 80 100 28 9
          27 29 10 9 8 28
          7 26 8 28 27 26
          7 28 9 7 8 28
          27 7 9 28 32 13
          31 33 12 11 10 30
          9 28 10 30 29 28
          9 30 11 9 10 30
          29 9 11 30 34 15
          33 35 14 13 12 32
          11 30 12 32 31 30
          11 32 13 11 12 32
          31 11 13 32 16 15
          14 34 13 32 14 34
          33 32 13 34 15 13
          14 34 33 13 15 34
          35 34 15 36 18 17
          16 36 17 15 16 36
          35 15 17 36 36 17
          35 37 17 36 18 38
          38 37 36 56 19 17
          18 38 37 17 19 38
          37 38 19 39 46 27
          45 47 50 31 49 51
          24 23 22 42 21 40
          22 42 41 40 21 42
          23 21 22 42 41 21
          23 42 26 25 24 44
          23 42 24 44 43 42
          23 44 25 23 24 44
          43 23 25 44 64 45
          63 65 28 27 26 46
          25 44 26 46 45 44
          25 46 27 25 26 46
          45 25 27 46 48 29
          47 49 30 29 28 48
          27 46 28 48 47 46
          27 48 29 27 28 48
          47 27 29 48 52 33
          51 53 32 31 30 50
          29 48 30 50 49 48
          29 50 31 29 30 50
          49 29 31 50 57 56
          37 58 54 35 53 55
          34 33 32 52 31 50
          32 52 51 50 31 52
          33 31 32 52 51 31
          33 52 62 43 61 63
          36 35 34 54 33 52
          34 54 53 52 33 54
          35 33 34 54 53 33
          35 54 35 54 36 56
          55 54 35 56 37 35
          36 56 55 35 37 56
          56 37 55 57 37 56
          38 58 39 37 38 58
          57 37 39 58 57 58
          39 59 66 47 65 67
          70 51 69 71 44 43
          42 62 41 60 42 62
          61 60 41 62 43 41
          42 62 61 41 43 62
          46 45 44 64 43 62
          44 64 63 62 43 64
          45 43 44 64 63 43
          45 64 97 96 77 98
          48 47 46 66 45 64
          46 66 65 64 45 66
          47 45 46 66 65 45
          47 66 68 49 67 69
          50 49 48 68 47 66
          48 68 67 66 47 68
          49 47 48 68 67 47
          49 68 72 53 71 73
          52 51 50 70 49 68
          50 70 69 68 49 70
          51 49 50 70 69 49
          51 70 77 76 57 78
          74 55 73 75 54 53
          52 72 51 70 52 72
          71 70 51 72 53 51
          52 72 71 51 53 72
          82 63 81 83 56 55
          54 74 53 72 54 74
          73 72 53 74 55 53
          54 74 73 53 55 74
          84 65 83 85 58 57
          56 76 55 74 56 76
          75 74 55 76 57 55
          56 76 75 55 57 76
          76 57 75 77 57 76
          58 78 122 121 120 140
          59 57 58 78 77 57
          59 78 77 78 59 79
          86 67 85 87 102 101
          100 120 64 63 62 82
          61 80 62 82 81 80
          61 82 63 61 62 82
          81 61 63 82 66 65
          64 84 63 82 64 84
          83 82 63 84 65 63
          64 84 83 63 65 84
          68 67 66 86 65 84
          66 86 85 84 65 86
          67 65 66 86 85 65
          67 86 88 69 87 89
          90 71 89 91 70 69
          68 88 67 86 68 88
          87 86 67 88 69 67
          68 88 87 67 69 88
          92 73 91 93 72 71
          70 90 69 88 70 90
          89 88 69 90 71 69
          70 90 89 69 71 90
          74 73 72 92 71 90
          72 92 91 90 71 92
          73 71 72 92 91 71
          73 92 76 75 74 94
          73 92 74 94 93 92
          73 94 75 73 74 94
          93 73 75 94 94 75
          93 95 78 77 76 96
          75 94 76 96 95 94
          75 96 77 75 76 96
          95 75 77 96 96 77
          95 97 77 96 78 98
          162 161 160 180 79 77
          78 98 97 77 79 98
          97 98 79 99 102 83
          101 103 84 83 82 102
          81 100 82 102 101 100
          81 102 83 81 82 102
          101 81 83 102 104 85
          103 105 86 85 84 104
          83 102 84 104 103 102
          83 104 85 83 84 104
          103 83 85 104 106 87
          105 107 88 87 86 106
          85 104 86 106 105 104
          85 106 87 85 86 106
          105 85 87 106 108 89
          107 109 110 91 109 111
          90 89 88 108 87 106
          88 108 107 106 87 108
          89 87 88 108 107 87
          89 108 112 93 111 113
          92 91 90 110 89 108
          90 110 109 108 89 110
          91 89 90 110 109 89
          91 110 94 93 92 112
          91 110 92 112 111 110
          91 112 93 91 92 112
          111 91 93 112 96 95
          94 114 93 112 94 114
          113 112 93 114 95 93
          94 114 113 93 95 114
          114 95 113 115 142 123
          141 143 98 97 96 116
          95 114 96 116 115 114
          95 116 97 95 96 116
          115 95 97 116 116 97
          115 117 97 116 98 118
          117 116 97 118 99 97
          98 118 117 97 99 118
          117 118 99 119 148 129
          147 149 104 103 102 122
          101 120 102 122 121 120
          101 122 103 101 102 122
          121 101 103 122 122 103
          121 123 106 105 104 124
          103 122 104 124 123 122
          103 124 105 103 104 124
          123 103 105 124 124 105
          123 125 126 107 125 127
          108 107 106 126 105 124
          106 126 125 124 105 126
          107 105 106 126 125 105
          107 126 128 109 127 129
          130 111 129 131 110 109
          108 128 107 126 108 128
          127 126 107 128 109 107
          108 128 127 107 109 128
          132 113 131 133 112 111
          110 130 109 128 110 130
          129 128 109 130 111 109
          110 130 129 109 111 130
          114 113 112 132 111 130
          112 132 131 130 111 132
          113 111 112 132 131 111
          113 132 116 115 114 134
          113 132 114 134 133 132
          113 134 115 113 114 134
          133 113 115 134 134 115
          133 135 118 117 116 136
          115 134 116 136 135 134
          115 136 117 115 116 136
          135 115 117 136 136 117
          135 137 117 136 118 138
          137 136 117 138 119 117
          118 138 137 117 119 138
          137 138 119 139 142 141
          140 160 124 123 122 142
          121 140 122 142 141 140
          121 142 123 121 122 142
          141 121 123 142 126 125
          124 144 123 142 124 144
          143 142 123 144 125 123
          124 144 143 123 125 144
          144 125 143 145 128 127
          126 146 125 144 126 146
          145 144 125 146 127 125
          126 146 145 125 127 146
          146 127 145 147 150 131
          149 151 130 129 128 148
          127 146 128 148 147 146
          127 148 129 127 128 148
          147 127 129 148 152 133
          151 153 132 131 130 150
          129 148 130 150 149 148
          129 150 131 129 130 150
          149 129 131 150 134 133
          132 152 131 150 132 152
          151 150 131 152 133 131
          132 152 151 131 133 152
          136 135 134 154 133 152
          134 154 153 152 133 154
          135 133 134 154 153 133
          135 154 154 135 153 155
          138 137 136 156 135 154
          136 156 155 154 135 156
          137 135 136 156 155 135
          137 156 156 137 155 157
          137 156 138 158 157 156
          137 158 139 137 138 158
          157 137 139 158 157 158
          139 159 144 143 142 162
          141 160 142 162 161 160
          141 162 143 141 142 162
          161 141 143 162 162 143
          161 163 146 145 144 164
          143 162 144 164 163 162
          143 164 145 143 144 164
          163 143 145 164 164 145
          163 165 177 196 178 198
          168 149 167 169 148 147
          146 166 145 164 146 166
          165 164 145 166 147 145
          146 166 165 145 147 166
          166 147 165 167 170 151
          169 171 150 149 148 168
          147 166 148 168 167 166
          147 168 149 147 148 168
          167 147 149 168 172 153
          171 173 152 151 150 170
          149 168 150 170 169 168
          149 170 151 149 150 170
          169 149 151 170 154 153
          152 172 151 170 152 172
          171 170 151 172 153 151
          152 172 171 151 153 172
          156 155 154 174 153 172
          154 174 173 172 153 174
          155 153 154 174 173 153
          155 174 174 155 173 175
          158 157 156 176 155 174
          156 176 175 174 155 176
          157 155 156 176 175 155
          157 176 176 157 175 177
          157 176 158 178 177 176
          157 178 159 157 158 178
          177 157 159 178 178 159
          177 179 192 173 191 193
          164 163 162 182 161 180
          162 182 181 180 161 182
          163 161 162 182 181 161
          163 182 182 163 181 183
          166 165 164 184 163 182
          164 184 183 182 163 184
          165 163 164 184 183 163
          165 184 184 165 183 185
          168 167 166 186 165 184
          166 186 185 184 165 186
          167 165 166 186 185 165
          167 186 186 167 185 187
          188 169 187 189 170 169
          168 188 167 186 168 188
          187 186 167 188 169 167
          168 188 187 167 169 188
          190 171 189 191 172 171
          170 190 169 188 170 190
          189 188 169 190 171 169
          170 190 189 169 171 190
          174 173 172 192 171 190
          172 192 191 190 171 192
          173 171 172 192 191 171
          173 192 176 175 174 194
          173 192 174 194 193 192
          173 194 175 173 174 194
          193 173 175 194 194 175
          193 195 178 177 176 196
          175 194 176 196 195 194
          175 196 177 175 176 196
          195 175 177 196 197 196
          177 198 196 177 195 197
          179 177 178 198 197 177
          179 198 198 179 197 199
        </DataArray>
        <DataArray type="Int64" Name="offsets" format="ascii" RangeMin="4" RangeMax="1944">
          4 8 12 16 20 24
          28 32 36 40 44 48
          52 56 60 64 68 72
          76 80 84 88 92 96
          100 104 108 112 116 120
          124 128 132 136 140 144
          148 152 156 160 164 168
          172 176 180 184 188 192
          196 200 204 208 212 216
          220 224 228 232 236 240
          244 248 252 256 260 264
          268 272 276 280 284 288
          292 296 300 304 308 312
          316 320 324 328 332 336
          340 344 348 352 356 360
          364 368 372 376 380 384
          388 392 396 400 404 408
          412 416 420 424 428 432
          436 440 444 448 452 456
          460 464 468 472 476 480
          484 488 492 496 500 504
          508 512 516 520 524 528
          532 536 540 544 548 552
          556 560 564 568 572 576
          580 584 588 592 596 600
          604 608 612 616 620 624
          628 632 636 640 644 648
          652 656 660 664 668 672
          676 680 684 688 692 696
          700 704 708 712 716 720
          724 728 732 736 740 744
          748 752 756 760 764 768
          772 776 780 784 788 792
          796 800 804 808 812 816
          820 824 828 832 836 840
          844 848 852 856 860 864
          868 872 876 880 884 888
          892 896 900 904 908 912
          916 920 924 928 932 936
          940 944 948 952 956 960
          964 968 972 976 980 984
          988 992 996 1000 1004 1008
          1012 1016 1020 1024 1028 1032
          1036 1040 1044 1048 1052 1056
          1060 1064 1068 1072 1076 1080
          1084 1088 1092 1096 1100 1104
          1108 1112 1116 1120 1124 1128
          1132 1136 1140 1144 1148 1152
          1156 1160 1164 1168 1172 1176
          1180 1184 1188 1192 1196 1200
          1204 1208 1212 1216 1220 1224
          1228 1232 1236 1240 1244 1248
          1252 1256 1260 1264 1268 1272
          1276 1280 1284 1288 1292 1296
          1300 1304 1308 1312 1316 1320
          1324 1328 1332 1336 1340 1344
          1348 1352 1356 1360 1364 1368
          1372 1376 1380 1384 1388 1392
          1396 1400 1404 1408 1412 1416
          1420 1424 1428 1432 1436 1440
          1444 1448 1452 1456 1460 1464
          1468 1472 1476 1480 1484 1488
          1492 1496 1500 1504 1508 1512
          1516 1520 1524 1528 1532 1536
          1540 1544 1548 1552 1556 1560
          1564 1568 1572 1576 1580 1584
          1588 1592 1596 1600 1604 1608
          1612 1616 1620 1624 1628 1632
          1636 1640 1644 1648 1652 1656
          1660 1664 1668 1672 1676 1680
          1684 1688 1692 1696 1700 1704
          1708 1712 1716 1720 1724 1728
          1732 1736 1740 1744 1748 1752
          1756 1760 1764 1768 1772 1776
          1780 1784 1788 1792 1796 1800
          1804 1808 1812 1816 1820 1824
          1828 1832 1836 1840 1844 1848
          1852 1856 1860 1864 1868 1872
          1876 1880 1884 1888 1892 1896
          1900 1904 1908 1912 1916 1920
          1924 1928 1932 1936 1940 1944
        </DataArray>
        <DataArray type="UInt8" Name="types" format="ascii" RangeMin="10" RangeMax="10">
          10 10 10 10 10 10
          10 10 10 10 10 10
          10 10 10 10 10 10
          10 10 10 10 10 10
          10 10 10 10 10 10
          10 10 10 10 10 10
          10 10 10 10 10 10
          10 10 10 10 10 10
          10 10 10 10 10 10
          10 10 10 10 10 10
          10 10 10 10 10 10
          10 10 10 10 10 10
          10 10 10 10 10 10
          10 10 10 10 10 10
          10 10 10 10 10 10
          10 10 10 10 10 10
          10 10 10 10 10 10
          10 10 10 10 10 10
          10 10 10 10 10 10
          10 10 10 10 10 10
          10 10 10 10 10 10
          10 10 10 10 10 10
          10 10 10 10 10 10
          10 10 10 10 10 10
          10 10 10 10 10 10
          10 10 10 10 10 10
          10 10 10 10 10 10
          10 10 10 10 10 10
          10 10 10 10 10 10
          10 10 10 10 10 10
          10 10 10 10 10 10
          10 10 10 10 10 10
          10 10 10 10 10 10
          10 10 10 10 10 10
          10 10 10 10 10 10
          10 10 10 10 10 10
          10 10 10 10 10 10
          10 10 10 10 10 10
          10 10 10 10 10 10
          10 10 10 10 10 10
          10 10 10 10 10 10
          10 10 10 10 10 10
          10 10 10 10 10 10
          10 10 10 10 10 10
          10 10 10 10 10 10
          10 10 10 10 10 10
          10 10 10 10 10 10
          10 10 10 10 10 10
          10 10 10 10 10 10
          10 10 10 10 10 10
          10 10 10 10 10 10
          10 10 10 10 10 10
          10 10 10 10 10 10
          10 10 10 10 10 10
          10 10 10 10 10 10
          10 10 10 10 10 10
          10 10 10 10 10 10
          10 10 10 10 10 10
          10 10 10 10 10 10
          10 10 10 10 10 10
          10 10 10 10 10 10
          10 10 10 10 10 10
          10 10 10 10 10 10
          10 10 10 10 10 10
          10 10 10 10 10 10
          10 10 10 10 10 10
          10 10 10 10 10 10
          10 10 10 10 10 10
          10 10 10 10 10 10
          10 10 10 10 10 10
          10 10 10 10 10 10
          10 10 10 10 10 10
          10 10 10 10 10 10
          10 10 10 10 10 10
          10 10 10 10 10 10
          10 10 10 10 10 10
          10 10 10 10 10 10
          10 10 10 10 10 10
          10 10 10 10 10 10
          10 10 10 10 10 10
          10 10 10 10 10 10
        </DataArray>
      </Cells>
    </Piece>
  </UnstructuredGrid>
</VTKFile>
