<?xml version="1.0"?>
<VTKFile type="PolyData" version="0.1" byte_order="LittleEndian" header_type="UInt32" compressor="vtkZLibDataCompressor">
  <PolyData>
    <Piece NumberOfPoints="300" NumberOfVerts="300" NumberOfLines="0" NumberOfStrips="0" NumberOfPolys="0">
      <PointData>
        <DataArray type="Float64" Name="z0" format="ascii" RangeMin="0" RangeMax="33">
          0 3 6 2 5 8
          4 7 10 6 9 12
          8 11 14 10 13 16
          12 15 18 14 17 20
          16 19 22 18 21 24
          1 4 7 3 6 9
          5 8 11 7 10 13
          9 12 15 11 14 17
          13 16 19 15 18 21
          17 20 23 19 22 25
          2 5 8 4 7 10
          6 9 12 8 11 14
          10 13 16 12 15 18
          14 17 20 16 19 22
          18 21 24 20 23 26
          3 6 9 5 8 11
          7 10 13 9 12 15
          11 14 17 13 16 19
          15 18 21 17 20 23
          19 22 25 21 24 27
          4 7 10 6 9 12
          8 11 14 10 13 16
          12 15 18 14 17 20
          16 19 22 18 21 24
          20 23 26 22 25 28
          5 8 11 7 10 13
          9 12 15 11 14 17
          13 16 19 15 18 21
          17 20 23 19 22 25
          21 24 27 23 26 29
          6 9 12 8 11 14
          10 13 16 12 15 18
          14 17 20 16 19 22
          18 21 24 20 23 26
          22 25 28 24 27 30
          7 10 13 9 12 15
          11 14 17 13 16 19
          15 18 21 17 20 23
          19 22 25 21 24 27
          23 26 29 25 28 31
          8 11 14 10 13 16
          12 15 18 14 17 20
          16 19 22 18 21 24
          20 23 26 22 25 28
          24 27 30 26 29 32
          9 12 15 11 14 17
          13 16 19 15 18 21
          17 20 23 19 22 25
          21 24 27 23 26 29
          25 28 31 27 30 33
        </DataArray>
        <DataArray type="Float64" Name="ks" format="ascii" RangeMin="10" RangeMax="10">
          10 10 10 10 10 10
          10 10 10 10 10 10
          10 10 10 10 10 10
          10 10 10 10 10 10
          10 10 10 10 10 10
          10 10 10 10 10 10
          10 10 10 10 10 10
          10 10 10 10 10 10
          10 10 10 10 10 10
          10 10 10 10 10 10
          10 10 10 10 10 10
          10 10 10 10 10 10
          10 10 10 10 10 10
          10 10 10 10 10 10
          10 10 10 10 10 10
          10 10 10 10 10 10
          10 10 10 10 10 10
          10 10 10 10 10 10
          10 10 10 10 10 10
          10 10 10 10 10 10
          10 10 10 10 10 10
          10 10 10 10 10 10
          10 10 10 10 10 10
          10 10 10 10 10 10
          10 10 10 10 10 10
          10 10 10 10 10 10
          10 10 10 10 10 10
          10 10 10 10 10 10
          10 10 10 10 10 10
          10 10 10 10 10 10
          10 10 10 10 10 10
          10 10 10 10 10 10
          10 10 10 10 10 10
          10 10 10 10 10 10
          10 10 10 10 10 10
          10 10 10 10 10 10
          10 10 10 10 10 10
          10 10 10 10 10 10
          10 10 10 10 10 10
          10 10 10 10 10 10
          10 10 10 10 10 10
          10 10 10 10 10 10
          10 10 10 10 10 10
          10 10 10 10 10 10
          10 10 10 10 10 10
          10 10 10 10 10 10
          10 10 10 10 10 10
          10 10 10 10 10 10
          10 10 10 10 10 10
          10 10 10 10 10 10
        </DataArray>
      </PointData>
      <CellData>
      </CellData>
      <Points>
        <DataArray type="Float32" Name="Points" NumberOfComponents="3" format="ascii" RangeMin="0" RangeMax="1314.87642">
          0 0 0 0 0 30
          0 0 60 0 100 20
          0 100 50 0 100 80
          0 200 40 0 200 70
          0 200 100 0 300 60
          0 300 90 0 300 120
          0 400 80 0 400 110
          0 400 140 0 500 100
          0 500 130 0 500 160
          0 600 120 0 600 150
          0 600 180 0 700 140
          0 700 170 0 700 200
          0 800 160 0 800 190
          0 800 220 0 900 180
          0 900 210 0 900 240
          100 0 10 100 0 40
          100 0 70 100 100 30
          100 100 60 100 100 90
          100 200 50 100 200 80
          100 200 110 100 300 70
          100 300 100 100 300 130
          100 400 90 100 400 120
          100 400 150 100 500 110
          100 500 140 100 500 170
          100 600 130 100 600 160
          100 600 190 100 700 150
          100 700 180 100 700 210
          100 800 170 100 800 200
          100 800 230 100 900 190
          100 900 220 100 900 250
          200 0 20 200 0 50
          200 0 80 200 100 40
          200 100 70 200 100 100
          200 200 60 200 200 90
          200 200 120 200 300 80
          200 300 110 200 300 140
          200 400 100 200 400 130
          200 400 160 200 500 120
          200 500 150 200 500 180
          200 600 140 200 600 170
          200 600 200 200 700 160
          200 700 190 200 700 220
          200 800 180 200 800 210
          200 800 240 200 900 200
          200 900 230 200 900 260
          300 0 30 300 0 60
          300 0 90 300 100 50
          300 100 80 300 100 110
          300 200 70 300 200 100
          300 200 130 300 300 90
          300 300 120 300 300 150
          300 400 110 300 400 140
          300 400 170 300 500 130
          300 500 160 300 500 190
          300 600 150 300 600 180
          300 600 210 300 700 170
          300 700 200 300 700 230
          300 800 190 300 800 220
          300 800 250 300 900 210
          300 900 240 300 900 270
          400 0 40 400 0 70
          400 0 100 400 100 60
          400 100 90 400 100 120
          400 200 80 400 200 110
          400 200 140 400 300 100
          400 300 130 400 300 160
          400 400 120 400 400 150
          400 400 180 400 500 140
          400 500 170 400 500 200
          400 600 160 400 600 190
          400 600 220 400 700 180
          400 700 210 400 700 240
          400 800 200 400 800 230
          400 800 260 400 900 220
          400 900 250 400 900 280
          500 0 50 500 0 80
          500 0 110 500 100 70
          500 100 100 500 100 130
          500 200 90 500 200 120
          500 200 150 500 300 110
          500 300 140 500 300 170
          500 400 130 500 400 160
          500 400 190 500 500 150
          500 500 180 500 500 210
          500 600 170 500 600 200
          500 600 230 500 700 190
          500 700 220 500 700 250
          500 800 210 500 800 240
          500 800 270 500 900 230
          500 900 260 500 900 290
          600 0 60 600 0 90
          600 0 120 600 100 80
          600 100 110 600 100 140
          600 200 100 600 200 130
          600 200 160 600 300 120
          600 300 150 600 300 180
          600 400 140 600 400 170
          600 400 200 600 500 160
          600 500 190 600 500 220
          600 600 180 600 600 210
          600 600 240 600 700 200
          600 700 230 600 700 260
          600 800 220 600 800 250
          600 800 280 600 900 240
          600 900 270 600 900 300
          700 0 70 700 0 100
          700 0 130 700 100 90
          700 100 120 700 100 150
          700 200 110 700 200 140
          700 200 170 700 300 130
          700 300 160 700 300 190
          700 400 150 700 400 180
          700 400 210 700 500 170
          700 500 200 700 500 230
          700 600 190 700 600 220
          700 600 250 700 700 210
          700 700 240 700 700 270
          700 800 230 700 800 260
          700 800 290 700 900 250
          700 900 280 700 900 310
          800 0 80 800 0 110
          800 0 140 800 100 100
          800 100 130 800 100 160
          800 200 120 800 200 150
          800 200 180 800 300 140
          800 300 170 800 300 200
          800 400 160 800 400 190
          800 400 220 800 500 180
          800 500 210 800 500 240
          800 600 200 800 600 230
          800 600 260 800 700 220
          800 700 250 800 700 280
          800 800 240 800 800 270
          800 800 300 800 900 260
          800 900 290 800 900 320
          900 0 90 900 0 120
          900 0 150 900 100 110
          900 100 140 900 100 170
          900 200 130 900 200 160
          900 200 190 900 300 150
          900 300 180 900 300 210
          900 400 170 900 400 200
          900 400 230 900 500 190
          900 500 220 900 500 250
          900 600 210 900 600 240
          900 600 270 900 700 230
          900 700 260 900 700 290
          900 800 250 900 800 280
          900 800 310 900 900 270
          900 900 300 900 900 330
        </DataArray>
      </Points>
      <Verts>
        <DataArray type="Int64" Name="connectivity" format="ascii" RangeMin="0" RangeMax="299">
          0 1 2 3 4 5
          6 7 8 9 10 11
          12 13 14 15 16 17
          18 19 20 21 22 23
          24 25 26 27 28 29
          30 31 32 33 34 35
          36 37 38 39 40 41
          42 43 44 45 46 47
          48 49 50 51 52 53
          54 55 56 57 58 59
          60 61 62 63 64 65
          66 67 68 69 70 71
          72 73 74 75 76 77
          78 79 80 81 82 83
          84 85 86 87 88 89
          90 91 92 93 94 95
          96 97 98 99 100 101
          102 103 104 105 106 107
          108 109 110 111 112 113
          114 115 116 117 118 119
          120 121 122 123 124 125
          126 127 128 129 130 131
          132 133 134 135 136 137
          138 139 140 141 142 143
          144 145 146 147 148 149
          150 151 152 153 154 155
          156 157 158 159 160 161
          162 163 164 165 166 167
          168 169 170 171 172 173
          174 175 176 177 178 179
          180 181 182 183 184 185
          186 187 188 189 190 191
          192 193 194 195 196 197
          198 199 200 201 202 203
          204 205 206 207 208 209
          210 211 212 213 214 215
          216 217 218 219 220 221
          222 223 224 225 226 227
          228 229 230 231 232 233
          234 235 236 237 238 239
          240 241 242 243 244 245
          246 247 248 249 250 251
          252 253 254 255 256 257
          258 259 260 261 262 263
          264 265 266 267 268 269
          270 271 272 273 274 275
          276 277 278 279 280 281
          282 283 284 285 286 287
          288 289 290 291 292 293
          294 295 296 297 298 299
        </DataArray>
        <DataArray type="Int64" Name="offsets" format="ascii" RangeMin="1" RangeMax="300">
          1 2 3 4 5 6
          7 8 9 10 11 12
          13 14 15 16 17 18
          19 20 21 22 23 24
          25 26 27 28 29 30
          31 32 33 34 35 36
          37 38 39 40 41 42
          43 44 45 46 47 48
          49 50 51 52 53 54
          55 56 57 58 59 60
          61 62 63 64 65 66
          67 68 69 70 71 72
          73 74 75 76 77 78
          79 80 81 82 83 84
          85 86 87 88 89 90
          91 92 93 94 95 96
          97 98 99 100 101 102
          103 104 105 106 107 108
          109 110 111 112 113 114
          115 116 117 118 119 120
          121 122 123 124 125 126
          127 128 129 130 131 132
          133 134 135 136 137 138
          139 140 141 142 143 144
          145 146 147 148 149 150
          151 152 153 154 155 156
          157 158 159 160 161 162
          163 164 165 166 167 168
          169 170 171 172 173 174
          175 176 177 178 179 180
          181 182 183 184 185 186
          187 188 189 190 191 192
          193 194 195 196 197 198
          199 200 201 202 203 204
          205 206 207 208 209 210
          211 212 213 214 215 216
          217 218 219 220 221 222
          223 224 225 226 227 228
          229 230 231 232 233 234
          235 236 237 238 239 240
          241 242 243 244 245 246
          247 248 249 250 251 252
          253 254 255 256 257 258
          259 260 261 262 263 264
          265 266 267 268 269 270
          271 272 273 274 275 276
          277 278 279 280 281 282
          283 284 285 286 287 288
          289 290 291 292 293 294
          295 296 297 298 299 300
        </DataArray>
      </Verts>
      <Lines>
        <DataArray type="Int64" Name="connectivity" format="ascii" RangeMin="0" RangeMax="299">
        </DataArray>
        <DataArray type="Int64" Name="offsets" format="ascii" RangeMin="1" RangeMax="300">
        </DataArray>
      </Lines>
      <Strips>
        <DataArray type="Int64" Name="connectivity" format="ascii" RangeMin="0" RangeMax="299">
        </DataArray>
        <DataArray type="Int64" Name="offsets" format="ascii" RangeMin="1" RangeMax="300">
        </DataArray>
      </Strips>
      <Polys>
        <DataArray type="Int64" Name="connectivity" format="ascii" RangeMin="0" RangeMax="299">
        </DataArray>
        <DataArray type="Int64" Name="offsets" format="ascii" RangeMin="1" RangeMax="300">
        </DataArray>
      </Polys>
    </Piece>
  </PolyData>
</VTKFile>
