<?xml version="1.0"?>
<VTKFile type="UnstructuredGrid" version="0.1" byte_order="LittleEndian" header_type="UInt32" compressor="vtkZLibDataCompressor">
  <UnstructuredGrid>
    <Piece NumberOfPoints="200" NumberOfCells="486">
      <PointData>
        <DataArray type="Float64" Name="z0" format="ascii" RangeMin="0" RangeMax="30">
          0 3 2 5 4 7
          6 9 8 11 10 13
          12 15 14 17 16 19
          18 21 1 4 3 6
          5 8 7 10 9 12
          11 14 13 16 15 18
          17 20 19 22 2 5
          4 7 6 9 8 11
          10 13 12 15 14 17
          16 19 18 21 20 23
          3 6 5 8 7 10
          9 12 11 14 13 16
          15 18 17 20 19 22
          21 24 4 7 6 9
          8 11 10 13 12 15
          14 17 16 19 18 21
          20 23 22 25 5 8
          7 10 9 12 11 14
          13 16 15 18 17 20
          19 22 21 24 23 26
          6 9 8 11 10 13
          12 15 14 17 16 19
          18 21 20 23 22 25
          24 27 7 10 9 12
          11 14 13 16 15 18
          17 20 19 22 21 24
          23 26 25 28 8 11
          10 13 12 15 14 17
          16 19 18 21 20 23
          22 25 24 27 26 29
          9 12 11 14 13 16
          15 18 17 20 19 22
          21 24 23 26 25 28
          27 30
        </DataArray>
        <DataArray type="Float64" Name="ks" format="ascii" RangeMin="10" RangeMax="10">
          10 10 10 10 10 10
          10 10 10 10 10 10
          10 10 10 10 10 10
          10 10 10 10 10 10
          10 10 10 10 10 10
          10 10 10 10 10 10
          10 10 10 10 10 10
          10 10 10 10 10 10
          10 10 10 10 10 10
          10 10 10 10 10 10
          10 10 10 10 10 10
          10 10 10 10 10 10
          10 10 10 10 10 10
          10 10 10 10 10 10
          10 10 10 10 10 10
          10 10 10 10 10 10
          10 10 10 10 10 10
          10 10 10 10 10 10
          10 10 10 10 10 10
          10 10 10 10 10 10
          10 10 10 10 10 10
          10 10 10 10 10 10
          10 10 10 10 10 10
          10 10 10 10 10 10
          10 10 10 10 10 10
          10 10 10 10 10 10
          10 10 10 10 10 10
          10 10 10 10 10 10
          10 10 10 10 10 10
          10 10 10 10 10 10
          10 10 10 10 10 10
          10 10 10 10 10 10
          10 10 10 10 10 10
          10 10
        </DataArray>
        <DataArray type="Float64" Name="theta_1" format="ascii" RangeMin="0.081541715065" RangeMax="0.39761518086">
          0.39625419842 0.081541715065 0.39570741265 0.082993124076 0.39588911559 0.084508893799
          0.39605236427 0.086023650861 0.3962160913 0.087538451715 0.39638015455 0.089053282842
          0.39654295654 0.090569428787 0.3967035508 0.09208556461 0.39683373365 0.093598654637
          0.39617492062 0.095034945792 0.39606889213 0.083025055429 0.39553407092 0.084478731304
          0.39570608437 0.085993086528 0.39586001127 0.087506355488 0.39601439136 0.08902031112
          0.39616781769 0.090534180749 0.3963210486 0.092048032633 0.39647267943 0.093562471997
          0.39659406725 0.095074677783 0.39595638649 0.096515283179 0.39624148479 0.084540656866
          0.39568674138 0.085991483172 0.39585929901 0.087506290217 0.39601388981 0.089020264577
          0.39616747107 0.090534148159 0.39632076266 0.092048005508 0.39647467644 0.093562669775
          0.39662444912 0.095077718156 0.39674431694 0.096589771378 0.39608728896 0.098027115681
          0.39641532585 0.086056558305 0.39583927664 0.087504494955 0.39601374737 0.089020251831
          0.39616745201 0.090534146439 0.39632074999 0.092048004359 0.39647479573 0.093562681649
          0.39662686964 0.095077959939 0.39677598298 0.096592942127 0.39689548787 0.098104958915
          0.39621795817 0.099538928422 0.39658850796 0.087573905813 0.39599200272 0.089018301433
          0.39616731003 0.090534133743 0.39632074929 0.092048004297 0.39647480232 0.093562682304
          0.39662701862 0.095077974788 0.39677859525 0.096593203116 0.39692910973 0.098108325772
          0.39704605963 0.099620820788 0.39634786638 0.1010506743 0.39676245998 0.089091382244
          0.39614413694 0.090532054728 0.39632059161 0.092047990191 0.39647480115 0.093562682188
          0.39662702597 0.095077975519 0.39677877171 0.096593220709 0.39693219256 0.098108633832
          0.39708102553 0.099624878134 0.39719323595 0.1011379528 0.39647610882 0.10256305341
          0.39693690407 0.090608907771 0.39629588686 0.092045773174 0.39647460773 0.093562662949
          0.39662700078 0.095077973011 0.39677875157 0.096593218701 0.3969323621 0.098108650741
          0.39708412598 0.099625237161 0.39722965955 0.10114217954 0.39734138959 0.10265519837
          0.3966037082 0.10407587322 0.39710978257 0.092127996924 0.39644763945 0.093559972568
          0.39662610238 0.095077883384 0.39677799599 0.096593143247 0.39693147137 0.098108561767
          0.39708341313 0.099625154615 0.39723199441 0.10114244998 0.39737867292 0.10265952542
          0.39748985612 0.10417248078 0.39672988907 0.10558855089 0.39726442206 0.093646005347
          0.39658298595 0.095073576339 0.39676193368 0.096591535576 0.39691442727 0.098106855506
          0.39706561406 0.099623089802 0.39721356124 0.10114031143 0.39736279134 0.10265768218
          0.3975100415 0.10417482423 0.39761518086 0.10568752455 0.39683856496 0.10709947505
          0.39699599399 0.095114980544 0.39633805479 0.096549686567 0.39650577985 0.098065906193
          0.39664682325 0.099580076033 0.39678732291 0.10109419146 0.39692746492 0.10260827066
          0.39706598553 0.10412325324 0.39720003744 0.10563885919 0.39729852202 0.10715033562
          0.39655761274 0.10857135332
        </DataArray>
        <DataArray type="Float64" Name="theta_5" format="ascii" RangeMin="0.10104190866" RangeMax="0.38807590429">
          0.38127099209 0.10104190866 0.37853706326 0.10163228705 0.37944557793 0.102544469
          0.38026182137 0.10345158764 0.38108045651 0.10435892524 0.38190077276 0.10526641421
          0.3827147827 0.10618047727 0.383517754 0.10709448972 0.38416866826 0.10799327318
          0.38087460308 0.10850806229 0.38034446063 0.10179194381 0.3776703546 0.10239365652
          0.37853042184 0.10329876598 0.37930005635 0.10419844411 0.3800719568 0.1051015556
          0.38083908844 0.10600423708 0.38160524301 0.10690682983 0.38236339715 0.10781235998
          0.38297033625 0.10870672225 0.37978193243 0.10924308256 0.38120742397 0.10270328433
          0.37843370692 0.1032907492 0.37929649503 0.10419811775 0.38006944907 0.10510132288
          0.38083735535 0.10600407413 0.38160381328 0.10690669421 0.38237338221 0.10781334888
          0.3831222456 0.10872192411 0.38372158472 0.10961552356 0.38043644479 0.11013557841
          0.38207662927 0.10361612486 0.37919638321 0.10418914144 0.38006873683 0.10510125916
          0.38083726003 0.10600406553 0.38160374995 0.10690668846 0.38237397865 0.10781340824
          0.38313434821 0.10872313303 0.3838799149 0.1096313773 0.38447743935 0.11052479458
          0.38108979087 0.11102797544 0.38294253978 0.10453619573 0.3799600136 0.10509150717
          0.38083655016 0.10600400205 0.38160374644 0.10690668815 0.38237401162 0.10781341152
          0.38313509309 0.10872320727 0.38389297626 0.10963268224 0.38464554866 0.11054162886
          0.38523029813 0.11143743727 0.38173933188 0.11192003814 0.38381229991 0.10545691122
          0.38072068472 0.10599360697 0.38160295805 0.10690661762 0.38237400577 0.10781341094
          0.38313512984 0.10872321093 0.38389385856 0.10963277021 0.38466096279 0.11054316916
          0.38540512766 0.111457724 0.38596617977 0.11235643068 0.38238054411 0.11281526705
          0.38468452034 0.10637787219 0.38147943429 0.10689553253 0.38237303864 0.10781331474
          0.38313500391 0.10872319839 0.38389375787 0.10963276017 0.3846618105 0.1105432537
          0.38542062989 0.11145951914 0.38614829773 0.11237756435 0.38670694796 0.11327599183
          0.38301854101 0.11371269943 0.38554891283 0.10730665129 0.38223819723 0.10779986284
          0.38313051188 0.10872275025 0.38388997996 0.1096323829 0.38465735685 0.11054280884
          0.38541706565 0.11145910641 0.38615997206 0.11237891658 0.38689336461 0.11329762711
          0.38744928062 0.11419573723 0.38364944535 0.11460942112 0.3863221103 0.10823002673
          0.38291492975 0.10870121503 0.3838096684 0.10962434455 0.38457213634 0.11053427753
          0.3853280703 0.11144878234 0.38606780622 0.11236822381 0.38681395672 0.11328841091
          0.38755020749 0.11420745448 0.38807590429 0.1151042894 0.3841928248 0.11549737523
          0.38497996993 0.10890823605 0.38169027393 0.1094150995 0.38252889924 0.11032953097
          0.38323411624 0.1112337135 0.38393661457 0.11213762399 0.38463732458 0.1130413533
          0.38532992766 0.11394959953 0.38600018721 0.11486096263 0.38649261012 0.11575167811
          0.38278806369 0.11619009994
        </DataArray>
        <DataArray type="Float64" Name="theta_25" format="ascii" RangeMin="0.12418680348" RangeMax="0.38629713111">
          0.38260084643 0.1282072285 0.36061241965 0.12524511897 0.3649538032 0.12565295399
          0.36681256579 0.12583327769 0.36862187169 0.12602297443 0.37042033077 0.12621842709
          0.37218553704 0.1264100783 0.37370592417 0.1265861095 0.37409398092 0.12663115259
          0.35359499437 0.12464679986 0.37309934629 0.12655233039 0.35362049647 0.12464404236
          0.35724128669 0.12494600051 0.35880939804 0.12508253217 0.36036639369 0.12522328082
          0.36189285313 0.12536127286 0.36340200783 0.12549770421 0.36475184939 0.12562733655
          0.36520406403 0.12567290838 0.34727066394 0.12418680348 0.37543656517 0.12684951488
          0.35526703488 0.12478152962 0.35902677376 0.12510212625 0.36063797843 0.1252477631
          0.36217868354 0.12538704142 0.36372441867 0.12552677321 0.36525510612 0.12567777857
          0.36656744004 0.1258096663 0.36696403481 0.12584965454 0.34849108608 0.12426241732
          0.37753624596 0.12714849039 0.35669059798 0.12490044999 0.36059735887 0.12524410241
          0.36218315879 0.12538744442 0.36373352929 0.12552759381 0.36529199538 0.12568147405
          0.36678444423 0.12583142325 0.36808644342 0.12596227243 0.36844171206 0.1259981121
          0.34951067667 0.12432826781 0.37960002572 0.12749552222 0.3581206835 0.12502386158
          0.36213266201 0.12538289353 0.36373312166 0.12552755707 0.36529621814 0.12568189684
          0.36681832677 0.12583481816 0.36831254098 0.12598494317 0.36962741976 0.12611708594
          0.36991845488 0.12614798709 0.35050902213 0.12440088976 0.38167634509 0.12785143451
          0.35953581763 0.12514871438 0.36367752498 0.12552254631 0.36529523424 0.12568179833
          0.3668225919 0.12583524526 0.36835122792 0.12598881976 0.36988497858 0.12614351138
          0.37112640793 0.12628563043 0.37132803748 0.12630928087 0.35148127696 0.12447987707
          0.38369100803 0.12825567192 0.36094088742 0.12527573589 0.36523012653 0.12567527615
          0.36681487287 0.12583447199 0.36834849136 0.12598854539 0.36991958953 0.12614741123
          0.37137858301 0.12631493467 0.3725929964 0.12645634675 0.37273955249 0.12647359419
          0.3524467788 0.12455847077 0.38550206367 0.12864558199 0.36232862024 0.12540119062
          0.36667621617 0.12582057559 0.36826814036 0.12598049006 0.36983531528 0.12613799062
          0.37133057073 0.1263093545 0.37277004546 0.12647692479 0.37398405367 0.12661829034
          0.37407302493 0.12662884168 0.35336901558 0.1246347304 0.38629713111 0.12878427176
          0.36323788409 0.12548641259 0.36756456545 0.12590991103 0.36914929765 0.12606910466
          0.37064195719 0.12622930042 0.37208196618 0.12639692562 0.37349967239 0.12656196506
          0.37468483818 0.12669997517 0.37469344822 0.12670117026 0.35393848478 0.12468355213
          0.37586174117 0.12686389628 0.35546718599 0.12480112587 0.35905433375 0.12510936117
          0.36037029987 0.12522464979 0.36163310682 0.1253390092 0.36288046509 0.12545734508
          0.36409519021 0.12557359355 0.3651248903 0.12567250592 0.365287946 0.1256895814
          0.347243744 0.12422010107
        </DataArray>
        <DataArray type="Float64" Name="theta_50" format="ascii" RangeMin="0.12305305874" RangeMax="0.40732933378">
          0.40732933378 0.14643944824 0.3669355505 0.12584531507 0.37572730819 0.12682012798
          0.3782129778 0.1271740209 0.38029551623 0.12747743828 0.38226434368 0.12778237141
          0.38381659571 0.12811727549 0.38457257802 0.12828051193 0.38176334972 0.12769201069
          0.3365658221 0.12362954277 0.39836274958 0.13412245024 0.34552577484 0.12400185268
          0.35669388807 0.1249003923 0.35850452996 0.12505505603 0.36006941593 0.12519651507
          0.36156702831 0.12533189729 0.36295741116 0.12545758899 0.36386312521 0.12553949887
          0.36249048033 0.12541566499 0.32703313169 0.12325096872 0.3982590531 0.13405316252
          0.34825931231 0.12421485462 0.35954087463 0.12514863696 0.36144081947 0.1253203466
          0.36300272032 0.1254615388 0.36454692993 0.1256066363 0.36591394104 0.12574399945
          0.36672272382 0.12582530212 0.36512157311 0.12566471577 0.32819125032 0.12329601878
          0.39981285739 0.13512529537 0.34984559953 0.12433945177 0.36115051656 0.12529413994
          0.36305106533 0.12546590168 0.3646441988 0.12561639213 0.36616977367 0.12576966913
          0.36749638433 0.12590297161 0.3682906597 0.12598281658 0.36649929036 0.12580313328
          0.32876645751 0.12331875709 0.40112003116 0.13651801832 0.35154946735 0.12447326782
          0.36268667957 0.12543300513 0.3646419717 0.12561616848 0.36621725724 0.12577443151
          0.36771220986 0.12592462945 0.36904867819 0.12605892149 0.36983694972 0.12613816462
          0.36781786852 0.12593561845 0.32932368102 0.12334078467 0.40219415749 0.13797164535
          0.35336952023 0.12462296675 0.3642542764 0.12557726603 0.36620622413 0.12577332483
          0.36775767917 0.12592919038 0.36928709687 0.12608284876 0.37061224669 0.1262257604
          0.3712823181 0.12630381335 0.36906945772 0.12606137481 0.32987247236 0.12336247813
          0.40310469302 0.13920424292 0.35526057903 0.12478080238 0.3657631259 0.1257288597
          0.36769476386 0.12592287855 0.3692792207 0.1260820577 0.37079221215 0.12624668974
          0.37201360269 0.12638889259 0.37266114776 0.12646432437 0.37024969415 0.12618399298
          0.33040397813 0.12338348802 0.4035048477 0.13974681811 0.3568597969 0.12491434866
          0.36694713626 0.12584784298 0.36889717953 0.12604371159 0.37046487818 0.12620861498
          0.37186666176 0.12637179646 0.3730732299 0.12651227344 0.37370032388 0.12658532439
          0.37111975131 0.12628531253 0.33089565385 0.12340292315 0.40192454478 0.13761182778
          0.35663708936 0.12489597234 0.3667749408 0.12583066521 0.36862934196 0.12601693447
          0.37007608218 0.12616351047 0.37137134179 0.1263142983 0.37248949724 0.12644448746
          0.37306221374 0.12651120792 0.37052684733 0.12621643565 0.33105412879 0.1234091884
          0.38680116254 0.12876084869 0.33920703745 0.12373665644 0.34918244424 0.12428767957
          0.35047437197 0.1243892346 0.3515256832 0.12447190246 0.35254407168 0.12455470524
          0.35345743586 0.12463100963 0.35402135904 0.1246781378 0.35282623501 0.12457847986
          0.32192240212 0.12305305874
        </DataArray>
        <DataArray type="Float64" Name="theta_100" format="ascii" RangeMin="0.12177981635" RangeMax="0.41838760953">
          0.41838760953 0.20105175746 0.40340944608 0.13961947063 0.39654419296 0.13287600716
          0.39729033383 0.13339163878 0.39825787772 0.13405917127 0.39887902478 0.1344877781
          0.39887027632 0.13448207682 0.39668183486 0.1329739741 0.38401253247 0.12816137667
          0.29822650984 0.12215074732 0.41360418297 0.16773061703 0.35048707768 0.12438758356
          0.3555725005 0.12480639855 0.35862433532 0.12506556813 0.36084960036 0.12526669307
          0.36266877401 0.12543115067 0.36368113937 0.12552271437 0.36292806258 0.12545482777
          0.35202302754 0.12451094345 0.29370814324 0.12197723166 0.41244706385 0.16212135573
          0.35283084187 0.12457664679 0.36033254209 0.12522015643 0.36282047192 0.12544506857
          0.36443089954 0.12559498102 0.36572288225 0.12572480218 0.36645404002 0.12579829062
          0.36621473109 0.1257743265 0.35660883772 0.12489375685 0.2938695208 0.12198348375
          0.41235451979 0.16169091917 0.35580673509 0.12482524967 0.36226378761 0.1253947233
          0.36474722601 0.12562674834 0.3663044272 0.12578320394 0.36751794659 0.12590514273
          0.36821269991 0.12597497275 0.36787668109 0.12594129803 0.35764070886 0.12497995702
          0.2938486258 0.12198270139 0.41254961051 0.16260218686 0.35923541363 0.12512007836
          0.36398088788 0.12554993626 0.36636236028 0.12578901623 0.36788556271 0.12594205365
          0.36909500904 0.12606358288 0.3697722593 0.12613165477 0.36930282458 0.12608458787
          0.35840040666 0.12504623361 0.29385675113 0.12198302641 0.41277909464 0.1636738616
          0.36258404449 0.12542282142 0.36562488847 0.12571490008 0.36786260502 0.12593974434
          0.36940438857 0.12609464874 0.37057499459 0.12622143996 0.37113357751 0.12628649374
          0.37050774219 0.12621376128 0.35907655432 0.12510738041 0.29388877915 0.1219842662
          0.41286753302 0.1640875187 0.365122896 0.12566361946 0.36693397639 0.12584643432
          0.36910815642 0.12606489791 0.37060139085 0.12622451041 0.37164360001 0.12634585245
          0.37216527336 0.12640660823 0.3714174651 0.12631968467 0.35962145475 0.12515666218
          0.29395939063 0.12198698243 0.4124485833 0.16213371605 0.36540835057 0.12569243155
          0.36742540937 0.12589584942 0.36955987377 0.12611032261 0.37093172307 0.12626300887
          0.37191500911 0.12637749102 0.37240411791 0.12643445523 0.37161651503 0.12634289758
          0.35981250545 0.12517395247 0.29415083152 0.12199432381 0.41027032091 0.1543512297
          0.35587224024 0.124831437 0.36347726695 0.12550470893 0.36549007082 0.12570168929
          0.36662946648 0.12581617321 0.36746950763 0.125900589 0.36789896998 0.12594375692
          0.36733398222 0.12588707437 0.35728575479 0.12495047134 0.29470501278 0.12201553946
          0.40292806141 0.13897561573 0.30535294696 0.12242144346 0.33078136732 0.12339789314
          0.33251987189 0.12346656874 0.3332902746 0.1234970113 0.33397673757 0.12352413017
          0.33449208302 0.12354503633 0.33464111857 0.12355108722 0.33103952854 0.12340814191
          0.2886007837 0.12177981635
        </DataArray>
        <DataArray type="Float64" Name="theta_200" format="ascii" RangeMin="0.11940717351" RangeMax="0.42701099804">
          0.42701099804 0.34836387105 0.41685071919 0.18797384919 0.41030990875 0.15448168383
          0.40798821871 0.14797499936 0.40725176789 0.14628808655 0.40656348387 0.14471704706
          0.40442792062 0.14100822068 0.39861515384 0.13430880495 0.36497297293 0.12565043205
          0.23411092107 0.11940717351 0.42182729863 0.24680399438 0.40917472923 0.15125035538
          0.38649023905 0.12869325253 0.385570573 0.12849612476 0.38574953069 0.12853488127
          0.38448791237 0.12826303772 0.37677913505 0.12696633168 0.35297283596 0.12459015591
          0.31218995642 0.1226809147 0.2521146988 0.12026738843 0.41971570331 0.21648106603
          0.40429347168 0.1408208451 0.34804488592 0.12419756638 0.36310526443 0.12547098965
          0.36491070001 0.1256433305 0.36535851949 0.12568832662 0.36521404658 0.12567385547
          0.35745155628 0.1249639633 0.32421307264 0.123141214 0.24773722528 0.12006749123
          0.41917959334 0.20996188122 0.40284584469 0.1388629652 0.35187209578 0.12449831966
          0.36652330764 0.12580528077 0.36825248955 0.12597897627 0.36859190367 0.12601308875
          0.36753679056 0.12590718247 0.35800929205 0.12501096657 0.3249727766 0.12317065908
          0.24741291935 0.12005239017 0.41921677039 0.21040953556 0.40293064534 0.1389784886
          0.35345762374 0.12463008294 0.36791621704 0.12594521686 0.36970029643 0.12612443167
          0.37000291449 0.12615489505 0.36862375306 0.12601640255 0.35837049822 0.1250433601
          0.3248305523 0.12316514972 0.24728018865 0.1200462024 0.41929339391 0.21132508322
          0.40303171959 0.13911582729 0.35467370713 0.12473164788 0.36882798399 0.12603683254
          0.37054560629 0.12621806993 0.37076716227 0.12624387345 0.3692199165 0.12607631615
          0.35861854155 0.12506579893 0.32478671877 0.12316345255 0.24716217571 0.12004070434
          0.41905943831 0.2085490942 0.40219235782 0.13798091591 0.35479597943 0.12474193691
          0.36905285968 0.12605944978 0.37068693537 0.12623454583 0.37088417281 0.12625751804
          0.36928413986 0.12608278759 0.35868408495 0.12507173075 0.32490503286 0.12316803759
          0.24711988715 0.12003873639 0.41790451652 0.19630230253 0.39800816812 0.13388813207
          0.35222753059 0.12452777601 0.36658099261 0.12581122885 0.36795886236 0.12594963045
          0.36813470833 0.12596730597 0.36684987747 0.12583831204 0.35765764453 0.12498126161
          0.32535601161 0.12318550999 0.24734106637 0.12004904183 0.41428272273 0.17136832061
          0.36599740141 0.12575183836 0.35106692088 0.12443541421 0.35327500448 0.12461509023
          0.35370451382 0.1246509745 0.35390263131 0.12466752924 0.35368387789 0.12464927282
          0.34912306177 0.1242825167 0.32521107005 0.12317982974 0.24881414839 0.12011763865
          0.40666957428 0.14496153121 0.26595667711 0.12086898101 0.3006243906 0.12224108601
          0.30306240556 0.12233391308 0.30355623592 0.12235271866 0.30390571124 0.12236602726
          0.3041597862 0.122375681 0.3044197391 0.12238554238 0.29984863719 0.12221152169
          0.25136441697 0.12023363782
        </DataArray>
        <DataArray type="Float64" Name="theta_500" format="ascii" RangeMin="0.11779020544" RangeMax="0.45959663077">
          0.45959663077 0.43556739319 0.44409119697 0.41820636262 0.42851527851 0.37229251752
          0.4197236349 0.21659455227 0.41476533056 0.17418599337 0.4080780175 0.14821912176
          0.39545373456 0.13212949291 0.32769403719 0.12327644195 0.21854750536 0.11855381145
          0.19013557723 0.11779020544 0.45199856596 0.42734098371 0.43607389463 0.40608778901
          0.42058001044 0.22795470302 0.41164575082 0.15887835512 0.40215067381 0.13792803354
          0.38212727662 0.12775500433 0.28911666651 0.12179965783 0.25928304029 0.1205833305
          0.26597546792 0.12086873794 0.20767000707 0.11798159517 0.44473288018 0.41896455687
          0.42693355048 0.34693981902 0.41378446517 0.1686956852 0.39962859894 0.13500639976
          0.35128244565 0.12445237349 0.32155703422 0.12303825139 0.3314056298 0.12342234323
          0.28340264785 0.12157592615 0.25809211172 0.12053161494 0.20061966343 0.11790947547
          0.43911007635 0.41119716237 0.42143918707 0.24067377792 0.40725532928 0.14629508207
          0.34788900299 0.12418470872 0.35893465358 0.12509407819 0.33753330418 0.1236683005
          0.31716782861 0.12287019843 0.29374388049 0.12197768342 0.2572112892 0.12049350615
          0.20051135112 0.11790829618 0.43450138142 0.40266598894 0.41770762901 0.19467748786
          0.40146217886 0.13699408004 0.3442405747 0.12394657248 0.36020617608 0.12520903463
          0.33968508809 0.12375558961 0.31733817848 0.12287668809 0.2948230227 0.12201906816
          0.25709376218 0.1204884201 0.20046546875 0.11790779789 0.42979157804 0.38461063741
          0.41363713033 0.16791284812 0.39009815336 0.12963225259 0.34887788662 0.12426339799
          0.36039325979 0.12522594511 0.34088282857 0.12380546379 0.3182229684 0.12291056791
          0.2950156418 0.12202646393 0.25682444128 0.1204767291 0.2004288699 0.11790740016
          0.4261367757 0.33122404781 0.40975949682 0.1528823097 0.34661042477 0.12408456278
          0.35547958588 0.1247990427 0.35541756404 0.12479386724 0.34394447873 0.12393412364
          0.31993233537 0.12297602651 0.29543151021 0.1220424281 0.2568783794 0.12047907176
          0.20025681919 0.11790553262 0.42310823353 0.26903200684 0.40440197491 0.1409730142
          0.29194660412 0.12190890584 0.33604492726 0.12360779774 0.34063328586 0.12379487616
          0.34125445833 0.12382097481 0.32383060389 0.12312615781 0.29675636526 0.12209326119
          0.25776148324 0.12051743807 0.19981025729 0.11790068649 0.41803762991 0.19755242969
          0.38769974638 0.12895658546 0.2313783964 0.11926519479 0.30549532885 0.12242619979
          0.31078238819 0.12262695112 0.31213334889 0.12267831609 0.31442882234 0.12276559257
          0.30187535769 0.122288506 0.25963373813 0.12059884756 0.19981445704 0.11790073276
          0.40793723043 0.14785717889 0.238040534 0.1196018469 0.26157009216 0.1206825861
          0.2531744168 0.1203139919 0.25416822495 0.12035857294 0.25442555224 0.12037013105
          0.25516128164 0.12040316219 0.25782144175 0.12051985009 0.26012012198 0.12061960147
          0.20458091503 0.11795046641
        </DataArray>
        <DataArray type="Float64" Name="theta_1000" format="ascii" RangeMin="0.11748198134" RangeMax="0.48291680087">
          0.48291680087 0.45967975433 0.46759404957 0.44394153325 0.45219845597 0.42756237361
          0.43659043954 0.40695709971 0.42017521884 0.22251046781 0.39700110089 0.13319555332
          0.20204031003 0.11792504364 0.21192652209 0.11814537181 0.22680392334 0.11901708098
          0.17858150961 0.1176346607 0.47525582772 0.45184516064 0.45981914876 0.4358056094
          0.44415624951 0.41828327738 0.42776123147 0.36153310722 0.40938318972 0.15183752284
          0.26857869072 0.12097777272 0.23483379656 0.11943827035 0.24828360311 0.12009083449
          0.24364112075 0.11987384905 0.17202669593 0.11753231327 0.4676260958 0.44397473749
          0.45203855542 0.42738529248 0.43609820778 0.40612870429 0.41904585897 0.20841232997
          0.39217715145 0.13034935733 0.21465908791 0.1183235605 0.27925873768 0.12141169375
          0.22416893353 0.11887271598 0.23637013418 0.11951703317 0.1722125182 0.11753520277
          0.46003637558 0.4360374004 0.44423360766 0.4183746805 0.42755993275 0.35827642243
          0.40885554686 0.15037184404 0.25042887317 0.12018936714 0.28598417203 0.12167718312
          0.28911082453 0.12179847379 0.23708578288 0.11955427075 0.21977706326 0.11862422482
          0.1767822269 0.11760721123 0.45248434537 0.42787897922 0.43653975646 0.40687179279
          0.41954260457 0.21434296926 0.39589828663 0.13243460541 0.24126496212 0.11976067635
          0.2785476908 0.12138290696 0.28955040235 0.12181553324 0.23919467679 0.11965855553
          0.22090311581 0.11868822832 0.17677122946 0.11760704015 0.44483118689 0.41908075962
          0.4283786359 0.37065114082 0.41007148476 0.1537486369 0.28325668844 0.12156937973
          0.30855118396 0.1225421647 0.26870212468 0.12098294436 0.28628899555 0.12168900314
          0.24606662358 0.11998791882 0.21831410855 0.11853715207 0.17710367537 0.11761227636
          0.43705648264 0.40774141888 0.42000685542 0.22024877056 0.39649130835 0.13284352795
          0.24468420255 0.11992426116 0.31100884376 0.12263552823 0.27963912434 0.12142699679
          0.26866627043 0.12098148804 0.26087093733 0.12065200829 0.21373198785 0.11826362408
          0.17732863824 0.1176158129 0.42870293543 0.37472687534 0.40931998548 0.15166340856
          0.26628400298 0.12088114283 0.29882439604 0.12217218161 0.30484578292 0.12240138541
          0.30058632456 0.12223933269 0.25797501804 0.12052639721 0.26542966094 0.12084565583
          0.21301707219 0.11821827962 0.17685591375 0.11760835583 0.41976303514 0.21716162088
          0.38537932863 0.1284558606 0.16918797822 0.11748198134 0.2584153957 0.12054548046
          0.27141644584 0.12109442348 0.27641915171 0.1212976484 0.27967485184 0.12142839408
          0.24507908034 0.11994205129 0.22139239246 0.11871577758 0.17599812943 0.11759485022
          0.408414143 0.1491502274 0.22591620084 0.11896928789 0.23046639023 0.1192134443
          0.21672793319 0.11844266275 0.21975356764 0.11862304193 0.21977176442 0.11862412183
          0.22208040036 0.118754642 0.23015293101 0.1191965772 0.23106129555 0.11924515089
          0.17278225989 0.11754417572
        </DataArray>
        <DataArray type="Float64" Name="theta_2000" format="ascii" RangeMin="0.11692988395" RangeMax="0.4907949021">
          0.4907949021 0.46768286365 0.47543104253 0.4520251757 0.45991025431 0.43590314065
          0.44404882042 0.41815635724 0.42732746111 0.35427151364 0.40623493247 0.14396829252
          0.20463990663 0.11795095144 0.24022581685 0.11970749125 0.22901101359 0.11913550363
          0.14868080383 0.11701564961 0.48314946586 0.45991737949 0.46772338597 0.44407554571
          0.45208438352 0.42743605189 0.4359870899 0.40592287603 0.41834994321 0.20077108325
          0.36688278333 0.12584125481 0.1585417842 0.11727009632 0.22378473674 0.11885046222
          0.2060455481 0.11796517691 0.14602709134 0.11692988395 0.47548982097 0.45208556378
          0.45998963387 0.43598811504 0.44418486352 0.41831710275 0.42757521763 0.3585211108
          0.40671792343 0.1450714267 0.20885971 0.11799292432 0.23515434414 0.11945535028
          0.18175505311 0.11767961559 0.21181960544 0.1181409249 0.14786104458 0.11699187974
          0.46779590016 0.4441506806 0.45218513022 0.42754762294 0.43617212894 0.40625319707
          0.41872349427 0.20482543826 0.3764406729 0.12691707264 0.16594431428 0.11742439722
          0.24302227201 0.11984382276 0.17379917217 0.11756015962 0.20431930995 0.11794776635
          0.15560781368 0.11720077743 0.46003280468 0.43603348609 0.44425301318 0.41839762426
          0.42774463184 0.36129038525 0.40723358805 0.14624900691 0.21793586839 0.1185131651