<?xml version="1.0"?>
<VTKFile type="UnstructuredGrid" version="0.1" byte_order="LittleEndian" header_type="UInt32" compressor="vtkZLibDataCompressor">
  <UnstructuredGrid>
    <Piece NumberOfPoints="800" NumberOfCells="3390">
      <PointData>
        <DataArray type="Float64" Name="z0" format="ascii" RangeMin="0" RangeMax="34">
          0 1 2 3 4 5
          6 7 2 3 4 5
          6 7 8 9 4 5
          6 7 8 9 10 11
          6 7 8 9 10 11
          12 13 8 9 10 11
          12 13 14 15 10 11
          12 13 14 15 16 17
          12 13 14 15 16 17
          18 19 14 15 16 17
          18 19 20 21 16 17
          18 19 20 21 22 23
          18 19 20 21 22 23
          24 25 1 2 3 4
          5 6 7 8 3 4
          5 6 7 8 9 10
          5 6 7 8 9 10
          11 12 7 8 9 10
          11 12 13 14 9 10
          11 12 13 14 15 16
          11 12 13 14 15 16
          17 18 13 14 15 16
          17 18 19 20 15 16
          17 18 19 20 21 22
          17 18 19 20 21 22
          23 24 19 20 21 22
          23 24 25 26 2 3
          4 5 6 7 8 9
          4 5 6 7 8 9
          10 11 6 7 8 9
          10 11 12 13 8 9
          10 11 12 13 14 15
          10 11 12 13 14 15
          16 17 12 13 14 15
          16 17 18 19 14 15
          16 17 18 19 20 21
          16 17 18 19 20 21
          22 23 18 19 20 21
          22 23 24 25 20 21
          22 23 24 25 26 27
          3 4 5 6 7 8
          9 10 5 6 7 8
          9 10 11 12 7 8
          9 10 11 12 13 14
          9 10 11 12 13 14
          15 16 11 12 13 14
          15 16 17 18 13 14
          15 16 17 18 19 20
          15 16 17 18 19 20
          21 22 17 18 19 20
          21 22 23 24 19 20
          21 22 23 24 25 26
          21 22 23 24 25 26
          27 28 4 5 6 7
          8 9 10 11 6 7
          8 9 10 11 12 13
          8 9 10 11 12 13
          14 15 10 11 12 13
          14 15 16 17 12 13
          14 15 16 17 18 19
          14 15 16 17 18 19
          20 21 16 17 18 19
          20 21 22 23 18 19
          20 21 22 23 24 25
          20 21 22 23 24 25
          26 27 22 23 24 25
          26 27 28 29 5 6
          7 8 9 10 11 12
          7 8 9 10 11 12
          13 14 9 10 11 12
          13 14 15 16 11 12
          13 14 15 16 17 18
          13 14 15 16 17 18
          19 20 15 16 17 18
          19 20 21 22 17 18
          19 20 21 22 23 24
          19 20 21 22 23 24
          25 26 21 22 23 24
          25 26 27 28 23 24
          25 26 27 28 29 30
          6 7 8 9 10 11
          12 13 8 9 10 11
          12 13 14 15 10 11
          12 13 14 15 16 17
          12 13 14 15 16 17
          18 19 14 15 16 17
          18 19 20 21 16 17
          18 19 20 21 22 23
          18 19 20 21 22 23
          24 25 20 21 22 23
          24 25 26 27 22 23
          24 25 26 27 28 29
          24 25 26 27 28 29
          30 31 7 8 9 10
          11 12 13 14 9 10
          11 12 13 14 15 16
          11 12 13 14 15 16
          17 18 13 14 15 16
          17 18 19 20 15 16
          17 18 19 20 21 22
          17 18 19 20 21 22
          23 24 19 20 21 22
          23 24 25 26 21 22
          23 24 25 26 27 28
          23 24 25 26 27 28
          29 30 25 26 27 28
          29 30 31 32 8 9
          10 11 12 13 14 15
          10 11 12 13 14 15
          16 17 12 13 14 15
          16 17 18 19 14 15
          16 17 18 19 20 21
          16 17 18 19 20 21
          22 23 18 19 20 21
          22 23 24 25 20 21
          22 23 24 25 26 27
          22 23 24 25 26 27
          28 29 24 25 26 27
          28 29 30 31 26 27
          28 29 30 31 32 33
          9 10 11 12 13 14
          15 16 11 12 13 14
          15 16 17 18 13 14
          15 16 17 18 19 20
          15 16 17 18 19 20
          21 22 17 18 19 20
          21 22 23 24 19 20
          21 22 23 24 25 26
          21 22 23 24 25 26
          27 28 23 24 25 26
          27 28 29 30 25 26
          27 28 29 30 31 32
          27 28 29 30 31 32
          33 34
        </DataArray>
        <DataArray type="Float64" Name="ks" format="ascii" RangeMin="20" RangeMax="20">
          20 20 20 20 20 20
          20 20 20 20 20 20
          20 20 20 20 20 20
          20 20 20 20 20 20
          20 20 20 20 20 20
          20 20 20 20 20 20
          20 20 20 20 20 20
          20 20 20 20 20 20
          20 20 20 20 20 20
          20 20 20 20 20 20
          20 20 20 20 20 20
          20 20 20 20 20 20
          20 20 20 20 20 20
          20 20 20 20 20 20
          20 20 20 20 20 20
          20 20 20 20 20 20
          20 20 20 20 20 20
          20 20 20 20 20 20
          20 20 20 20 20 20
          20 20 20 20 20 20
          20 20 20 20 20 20
          20 20 20 20 20 20
          20 20 20 20 20 20
          20 20 20 20 20 20
          20 20 20 20 20 20
          20 20 20 20 20 20
          20 20 20 20 20 20
          20 20 20 20 20 20
          20 20 20 20 20 20
          20 20 20 20 20 20
          20 20 20 20 20 20
          20 20 20 20 20 20
          20 20 20 20 20 20
          20 20 20 20 20 20
          20 20 20 20 20 20
          20 20 20 20 20 20
          20 20 20 20 20 20
          20 20 20 20 20 20
          20 20 20 20 20 20
          20 20 20 20 20 20
          20 20 20 20 20 20
          20 20 20 20 20 20
          20 20 20 20 20 20
          20 20 20 20 20 20
          20 20 20 20 20 20
          20 20 20 20 20 20
          20 20 20 20 20 20
          20 20 20 20 20 20
          20 20 20 20 20 20
          20 20 20 20 20 20
          20 20 20 20 20 20
          20 20 20 20 20 20
          20 20 20 20 20 20
          20 20 20 20 20 20
          20 20 20 20 20 20
          20 20 20 20 20 20
          20 20 20 20 20 20
          20 20 20 20 20 20
          20 20 20 20 20 20
          20 20 20 20 20 20
          20 20 20 20 20 20
          20 20 20 20 20 20
          20 20 20 20 20 20
          20 20 20 20 20 20
          20 20 20 20 20 20
          20 20 20 20 20 20
          20 20 20 20 20 20
          20 20 20 20 20 20
          20 20 20 20 20 20
          20 20 20 20 20 20
          20 20 20 20 20 20
          20 20 20 20 20 20
          20 20 20 20 20 20
          20 20 20 20 20 20
          20 20 20 20 20 20
          20 20 20 20 20 20
          20 20 20 20 20 20
          20 20 20 20 20 20
          20 20 20 20 20 20
          20 20 20 20 20 20
          20 20 20 20 20 20
          20 20 20 20 20 20
          20 20 20 20 20 20
          20 20 20 20 20 20
          20 20 20 20 20 20
          20 20 20 20 20 20
          20 20 20 20 20 20
          20 20 20 20 20 20
          20 20 20 20 20 20
          20 20 20 20 20 20
          20 20 20 20 20 20
          20 20 20 20 20 20
          20 20 20 20 20 20
          20 20 20 20 20 20
          20 20 20 20 20 20
          20 20 20 20 20 20
          20 20 20 20 20 20
          20 20 20 20 20 20
          20 20 20 20 20 20
          20 20 20 20 20 20
          20 20 20 20 20 20
          20 20 20 20 20 20
          20 20 20 20 20 20
          20 20 20 20 20 20
          20 20 20 20 20 20
          20 20 20 20 20 20
          20 20 20 20 20 20
          20 20 20 20 20 20
          20 20 20 20 20 20
          20 20 20 20 20 20
          20 20 20 20 20 20
          20 20 20 20 20 20
          20 20 20 20 20 20
          20 20 20 20 20 20
          20 20 20 20 20 20
          20 20 20 20 20 20
          20 20 20 20 20 20
          20 20 20 20 20 20
          20 20 20 20 20 20
          20 20 20 20 20 20
          20 20 20 20 20 20
          20 20 20 20 20 20
          20 20 20 20 20 20
          20 20 20 20 20 20
          20 20 20 20 20 20
          20 20 20 20 20 20
          20 20 20 20 20 20
          20 20 20 20 20 20
          20 20 20 20 20 20
          20 20 20 20 20 20
          20 20 20 20 20 20
          20 20 20 20 20 20
          20 20 20 20 20 20
          20 20
        </DataArray>
      </PointData>
      <CellData>
      </CellData>
      <Points>
        <DataArray type="Float32" Name="Points" NumberOfComponents="3" format="ascii" RangeMin="0" RangeMax="1273.2462448">
          0 0 0 0 0 1
          0 0 2 0 0 3
          0 0 4 0 0 5
          0 0 6 0 0 7
          0 100 2 0 100 3
          0 100 4 0 100 5
          0 100 6 0 100 7
          0 100 8 0 100 9
          0 200 4 0 200 5
          0 200 6 0 200 7
          0 200 8 0 200 9
          0 200 10 0 200 11
          0 300 6 0 300 7
          0 300 8 0 300 9
          0 300 10 0 300 11
          0 300 12 0 300 13
          0 400 8 0 400 9
          0 400 10 0 400 11
          0 400 12 0 400 13
          0 400 14 0 400 15
          0 500 10 0 500 11
          0 500 12 0 500 13
          0 500 14 0 500 15
          0 500 16 0 500 17
          0 600 12 0 600 13
          0 600 14 0 600 15
          0 600 16 0 600 17
          0 600 18 0 600 19
          0 700 14 0 700 15
          0 700 16 0 700 17
          0 700 18 0 700 19
          0 700 20 0 700 21
          0 800 16 0 800 17
          0 800 18 0 800 19
          0 800 20 0 800 21
          0 800 22 0 800 23
          0 900 18 0 900 19
          0 900 20 0 900 21
          0 900 22 0 900 23
          0 900 24 0 900 25
          100 0 1 100 0 2
          100 0 3 100 0 4
          100 0 5 100 0 6
          100 0 7 100 0 8
          100 100 3 100 100 4
          100 100 5 100 100 6
          100 100 7 100 100 8
          100 100 9 100 100 10
          100 200 5 100 200 6
          100 200 7 100 200 8
          100 200 9 100 200 10
          100 200 11 100 200 12
          100 300 7 100 300 8
          100 300 9 100 300 10
          100 300 11 100 300 12
          100 300 13 100 300 14
          100 400 9 100 400 10
          100 400 11 100 400 12
          100 400 13 100 400 14
          100 400 15 100 400 16
          100 500 11 100 500 12
          100 500 13 100 500 14
          100 500 15 100 500 16
          100 500 17 100 500 18
          100 600 13 100 600 14
          100 600 15 100 600 16
          100 600 17 100 600 18
          100 600 19 100 600 20
          100 700 15 100 700 16
          100 700 17 100 700 18
          100 700 19 100 700 20
          100 700 21 100 700 22
          100 800 17 100 800 18
          100 800 19 100 800 20
          100 800 21 100 800 22
          100 800 23 100 800 24
          100 900 19 100 900 20
          100 900 21 100 900 22
          100 900 23 100 900 24
          100 900 25 100 900 26
          200 0 2 200 0 3
          200 0 4 200 0 5
          200 0 6 200 0 7
          200 0 8 200 0 9
          200 100 4 200 100 5
          200 100 6 200 100 7
          200 100 8 200 100 9
          200 100 10 200 100 11
          200 200 6 200 200 7
          200 200 8 200 200 9
          200 200 10 200 200 11
          200 200 12 200 200 13
          200 300 8 200 300 9
          200 300 10 200 300 11
          200 300 12 200 300 13
          200 300 14 200 300 15
          200 400 10 200 400 11
          200 400 12 200 400 13
          200 400 14 200 400 15
          200 400 16 200 400 17
          200 500 12 200 500 13
          200 500 14 200 500 15
          200 500 16 200 500 17
          200 500 18 200 500 19
          200 600 14 200 600 15
          200 600 16 200 600 17
          200 600 18 200 600 19
          200 600 20 200 600 21
          200 700 16 200 700 17
          200 700 18 200 700 19
          200 700 20 200 700 21
          200 700 22 200 700 23
          200 800 18 200 800 19
          200 800 20 200 800 21
          200 800 22 200 800 23
          200 800 24 200 800 25
          200 900 20 200 900 21
          200 900 22 200 900 23
          200 900 24 200 900 25
          200 900 26 200 900 27
          300 0 3 300 0 4
          300 0 5 300 0 6
          300 0 7 300 0 8
          300 0 9 300 0 10
          300 100 5 300 100 6
          300 100 7 300 100 8
          300 100 9 300 100 10
          300 100 11 300 100 12
          300 200 7 300 200 8
          300 200 9 300 200 10
          300 200 11 300 200 12
          300 200 13 300 200 14
          300 300 9 300 300 10
          300 300 11 300 300 12
          300 300 13 300 300 14
          300 300 15 300 300 16
          300 400 11 300 400 12
          300 400 13 300 400 14
          300 400 15 300 400 16
          300 400 17 300 400 18
          300 500 13 300 500 14
          300 500 15 300 500 16
          300 500 17 300 500 18
          300 500 19 300 500 20
          300 600 15 300 600 16
          300 600 17 300 600 18
          300 600 19 300 600 20
          300 600 21 300 600 22
          300 700 17 300 700 18
          300 700 19 300 700 20
          300 700 21 300 700 22
          300 700 23 300 700 24
          300 800 19 300 800 20
          300 800 21 300 800 22
          300 800 23 300 800 24
          300 800 25 300 800 26
          300 900 21 300 900 22
          300 900 23 300 900 24
          300 900 25 300 900 26
          300 900 27 300 900 28
          400 0 4 400 0 5
          400 0 6 400 0 7
          400 0 8 400 0 9
          400 0 10 400 0 11
          400 100 6 400 100 7
          400 100 8 400 100 9
          400 100 10 400 100 11
          400 100 12 400 100 13
          400 200 8 400 200 9
          400 200 10 400 200 11
          400 200 12 400 200 13
          400 200 14 400 200 15
          400 300 10 400 300 11
          400 300 12 400 300 13
          400 300 14 400 300 15
          400 300 16 400 300 17
          400 400 12 400 400 13
          400 400 14 400 400 15
          400 400 16 400 400 17
          400 400 18 400 400 19
          400 500 14 400 500 15
          400 500 16 400 500 17
          400 500 18 400 500 19
          400 500 20 400 500 21
          400 600 16 400 600 17
          400 600 18 400 600 19
          400 600 20 400 600 21
          400 600 22 400 600 23
          400 700 18 400 700 19
          400 700 20 400 700 21
          400 700 22 400 700 23
          400 700 24 400 700 25
          400 800 20 400 800 21
          400 800 22 400 800 23
          400 800 24 400 800 25
          400 800 26 400 800 27
          400 900 22 400 900 23
          400 900 24 400 900 25
          400 900 26 400 900 27
          400 900 28 400 900 29
          500 0 5 500 0 6
          500 0 7 500 0 8
          500 0 9 500 0 10
          500 0 11 500 0 12
          500 100 7 500 100 8
          500 100 9 500 100 10
          500 100 11 500 100 12
          500 100 13 500 100 14
          500 200 9 500 200 10
          500 200 11 500 200 12
          500 200 13 500 200 14
          500 200 15 500 200 16
          500 300 11 500 300 12
          500 300 13 500 300 14
          500 300 15 500 300 16
          500 300 17 500 300 18
          500 400 13 500 400 14
          500 400 15 500 400 16
          500 400 17 500 400 18
          500 400 19 500 400 20
          500 500 15 500 500 16
          500 500 17 500 500 18
          500 500 19 500 500 20
          500 500 21 500 500 22
          500 600 17 500 600 18
          500 600 19 500 600 20
          500 600 21 500 600 22
          500 600 23 500 600 24
          500 700 19 500 700 20
          500 700 21 500 700 22
          500 700 23 500 700 24
          500 700 25 500 700 26
          500 800 21 500 800 22
          500 800 23 500 800 24
          500 800 25 500 800 26
          500 800 27 500 800 28
          500 900 23 500 900 24
          500 900 25 500 900 26
          500 900 27 500 900 28
          500 900 29 500 900 30
          600 0 6 600 0 7
          600 0 8 600 0 9
          600 0 10 600 0 11
          600 0 12 600 0 13
          600 100 8 600 100 9
          600 100 10 600 100 11
          600 100 12 600 100 13
          600 100 14 600 100 15
          600 200 10 600 200 11
          600 200 12 600 200 13
          600 200 14 600 200 15
          600 200 16 600 200 17
          600 300 12 600 300 13
          600 300 14 600 300 15
          600 300 16 600 300 17
          600 300 18 600 300 19
          600 400 14 600 400 15
          600 400 16 600 400 17
          600 400 18 600 400 19
          600 400 20 600 400 21
          600 500 16 600 500 17
          600 500 18 600 500 19
          600 500 20 600 500 21
          600 500 22 600 500 23
          600 600 18 600 600 19
          600 600 20 600 600 21
          600 600 22 600 600 23
          600 600 24 600 600 25
          600 700 20 600 700 21
          600 700 22 600 700 23
          600 700 24 600 700 25
          600 700 26 600 700 27
          600 800 22 600 800 23
          600 800 24 600 800 25
          600 800 26 600 800 27
          600 800 28 600 800 29
          600 900 24 600 900 25
          600 900 26 600 900 27
          600 900 28 600 900 29
          600 900 30 600 900 31
          700 0 7 700 0 8
          700 0 9 700 0 10
          700 0 11 700 0 12
          700 0 13 700 0 14
          700 100 9 700 100 10
          700 100 11 700 100 12
          700 100 13 700 100 14
          700 100 15 700 100 16
          700 200 11 700 200 12
          700 200 13 700 200 14
          700 200 15 700 200 16
          700 200 17 700 200 18
          700 300 13 700 300 14
          700 300 15 700 300 16
          700 300 17 700 300 18
          700 300 19 700 300 20
          700 400 15 700 400 16
          700 400 17 700 400 18
          700 400 19 700 400 20
          700 400 21 700 400 22
          700 500 17 700 500 18
          700 500 19 700 500 20
          700 500 21 700 500 22
          700 500 23 700 500 24
          700 600 19 700 600 20
          700 600 21 700 600 22
          700 600 23 700 600 24
          700 600 25 700 600 26
          700 700 21 700 700 22
          700 700 23 700 700 24
          700 700 25 700 700 26
          700 700 27 700 700 28
          700 800 23 700 800 24
          700 800 25 700 800 26
          700 800 27 700 800 28
          700 800 29 700 800 30
          700 900 25 700 900 26
          700 900 27 700 900 28
          700 900 29 700 900 30
          700 900 31 700 900 32
          800 0 8 800 0 9
          800 0 10 800 0 11
          800 0 12 800 0 13
          800 0 14 800 0 15
          800 100 10 800 100 11
          800 100 12 800 100 13
          800 100 14 800 100 15
          800 100 16 800 100 17
          800 200 12 800 200 13
          800 200 14 800 200 15
          800 200 16 800 200 17
          800 200 18 800 200 19
          800 300 14 800 300 15
          800 300 16 800 300 17
          800 300 18 800 300 19
          800 300 20 800 300 21
          800 400 16 800 400 17
          800 400 18 800 400 19
          800 400 20 800 400 21
          800 400 22 800 400 23
          800 500 18 800 500 19
          800 500 20 800 500 21
          800 500 22 800 500 23
          800 500 24 800 500 25
          800 600 20 800 600 21
          800 600 22 800 600 23
          800 600 24 800 600 25
          800 600 26 800 600 27
          800 700 22 800 700 23
          800 700 24 800 700 25
          800 700 26 800 700 27
          800 700 28 800 700 29
          800 800 24 800 800 25
          800 800 26 800 800 27
          800 800 28 800 800 29
          800 800 30 800 800 31
          800 900 26 800 900 27
          800 900 28 800 900 29
          800 900 30 800 900 31
          800 900 32 800 900 33
          900 0 9 900 0 10
          900 0 11 900 0 12
          900 0 13 900 0 14
          900 0 15 900 0 16
          900 100 11 900 100 12
          900 100 13 900 100 14
          900 100 15 900 100 16
          900 100 17 900 100 18
          900 200 13 900 200 14
          900 200 15 900 200 16
          900 200 17 900 200 18
          900 200 19 900 200 20
          900 300 15 900 300 16
          900 300 17 900 300 18
          900 300 19 900 300 20
          900 300 21 900 300 22
          900 400 17 900 400 18
          900 400 19 900 400 20
          900 400 21 900 400 22
          900 400 23 900 400 24
          900 500 19 900 500 20
          900 500 21 900 500 22
          900 500 23 900 500 24
          900 500 25 900 500 26
          900 600 21 900 600 22
          900 600 23 900 600 24
          900 600 25 900 600 26
          900 600 27 900 600 28
          900 700 23 900 700 24
          900 700 25 900 700 26
          900 700 27 900 700 28
          900 700 29 900 700 30
          900 800 25 900 800 26
          900 800 27 900 800 28
          900 800 29 900 800 30
          900 800 31 900 800 32
          900 900 27 900 900 28
          900 900 29 900 900 30
          900 900 31 900 900 32
          900 900 33 900 900 34
        </DataArray>
      </Points>
      <Cells>
        <DataArray type="Int64" Name="connectivity" format="ascii" RangeMin="0" RangeMax="799">
          92 87 86 165 23 95
          22 101 8 1 0 80
          8 3 2 81 16 9
          8 88 87 86 14 92
          86 91 13 92 88 81
          80 160 12 7 6 85
          96 89 88 168 6 84
          12 85 8 2 1 80
          8 9 3 81 22 94
          21 100 37 31 36 109
          9 4 3 82 22 15
          21 94 94 99 21 100
          93 92 20 98 117 111
          116 189 85 84 12 90
          29 107 35 108 102 174
          101 180 5 83 11 84
          2 80 8 81 44 39
          38 117 95 87 94 167
          18 13 12 91 15 93
          21 94 85 90 12 91
          11 12 6 84 7 86
          14 87 15 7 14 87
          10 11 5 83 20 15
          14 93 103 182 110 183
          11 6 5 84 182 254
          181 260 15 87 14 93
          21 99 27 100 13 91
          19 92 101 100 28 106
          23 102 30 103 82 81
          9 88 71 143 70 149
          176 169 168 248 31 103
          30 109 168 161 160 240
          4 82 10 83 3 81
          9 82 10 5 4 83
          13 7 12 85 166 171
          93 172 9 10 4 82
          103 175 102 181 90 89
          17 96 14 7 13 86
          102 95 101 174 86 85
          13 91 20 98 26 99
          10 82 9 88 14 92
          20 93 87 93 15 94
          30 23 29 102 118 111
          117 190 52 47 46 125
          98 97 25 104 28 106
          34 107 18 90 17 96
          22 100 28 101 95 101
          23 102 38 31 37 110
          262 334 261 340 110 188
          116 189 139 138 66 144
          67 139 66 145 138 137
          65 144 43 38 37 116
          26 98 25 104 30 108
          36 109 103 109 31 110
          41 42 36 114 143 149
          71 150 23 101 29 102
          14 86 13 92 29 23
          28 101 7 85 13 86
          87 92 14 93 21 15
          20 93 15 94 22 95
          19 14 13 92 12 90
          18 91 88 82 81 160
          84 89 11 90 12 84
          11 90 23 15 22 95
          95 94 22 100 31 110
          38 111 27 22 21 100
          109 187 115 188 172 167
          166 245 13 85 12 91
          11 83 10 89 19 20
          14 92 94 93 21 99
          86 164 92 165 37 115
          43 116 28 23 22 101
          26 21 20 99 17 18
          12 90 87 94 15 95
          31 109 37 110 24 17
          16 96 95 100 22 101
          93 98 20 99 84 83
          11 89 102 107 29 108
          17 12 11 90 83 82
          10 88 81 80 8 88
          18 19 13 91 38 116
          44 117 105 104 32 112
          83 88 10 89 9 81
          8 88 16 10 9 88
          173 172 100 178 11 89
          17 90 165 164 92 170
          30 102 29 108 92 97
          19 98 16 11 10 89
          10 88 16 89 16 17
          11 89 91 86 85 164
          174 179 101 180 20 92
          19 98 31 23 30 103
          103 102 30 108 108 113
          35 114 35 30 29 108
          95 173 101 174 117 116
          44 122 167 166 94 172
          21 93 20 99 19 91
          18 97 27 28 22 100
          102 101 29 107 51 52
          46 124 109 108 36 114
          36 31 30 109 34 29
          28 107 25 26 20 98
          95 102 23 103 91 92
          86 164 32 25 24 104
          103 108 30 109 101 106
          28 107 92 91 19 97
          25 20 19 98 91 90
          18 96 89 88 16 96
          26 27 21 99 42 37
          36 115 91 96 18 97
          17 89 16 96 24 18
          17 96 183 262 190 263
          98 93 92 171 19 97
          25 98 100 105 27 106
          24 19 18 97 18 96
          24 97 24 25 19 97
          55 133 61 134 175 167
          174 247 88 83 82 161
          28 100 27 106 39 31
          38 111 46 39 45 118
          50 51 45 123 29 101
          28 107 27 99 26 105
          35 36 30 108 85 163
          91 164 111 117 39 118
          34 106 33 112 89 84
          83 162 37 109 36 115
          33 34 28 106 103 110
          31 111 33 105 32 112
          107 112 34 113 55 47
          54 127 127 126 54 132
          100 99 27 105 33 28
          27 106 99 98 26 104
          97 96 24 104 34 35
          29 107 256 249 248 328
          59 54 53 132 39 111
          38 117 99 104 26 105
          25 97 24 104 246 251
          173 252 32 26 25 104
          197 191 196 269 87 166
          94 167 27 105 33 106
          110 115 37 116 40 33
          32 112 36 108 35 114
          38 110 37 116 32 27
          26 105 26 104 32 105
          32 33 27 105 41 36
          35 114 119 125 47 126
          111 116 38 117 88 89
          83 161 126 125 53 131
          54 47 53 126 101 179
          107 180 106 105 33 112
          56 49 48 128 111 110
          38 116 82 160 88 161
          110 109 37 115 127 133
          55 134 45 39 44 117
          39 118 46 119 40 34
          33 112 115 114 42 120
          39 117 45 118 61 55
          60 133 47 39 46 119
          108 107 35 113 42 43
          37 115 43 44 38 116
          90 91 85 163 93 87
          92 165 93 171 99 172
          248 241 240 320 107 106
          34 112 94 172 100 173
          53 131 59 132 47 126
          54 127 36 114 42 115
          35 113 41 114 35 107
          34 113 111 118 39 119
          47 125 53 126 143 142
          70 148 181 180 108 186
          46 118 45 124 53 47
          52 125 63 55 62 135
          43 115 42 121 109 114
          36 115 119 126 47 127
          40 35 34 113 34 112
          40 113 40 41 35 113
          116 115 43 121 53 125
          52 131 41 113 40 120
          121 120 48 128 47 119
          46 125 60 55 54 133
          62 55 61 134 100 95
          94 173 118 123 45 124
          84 162 90 163 113 112
          40 120 46 124 52 125
          118 117 45 123 119 118
          46 124 165 170 92 171
          125 124 52 130 119 124
          46 125 48 41 40 120
          54 132 60 133 117 122
          44 123 42 114 41 120
          126 131 53 132 59 60
          54 132 127 132 54 133
          114 113 41 120 51 46
          45 124 55 127 54 133
          83 161 89 162 115 120
          42 121 100 178 106 179
          48 42 41 120 45 123
          51 124 89 90 84 162
          125 130 52 131 131 136
          58 137 134 139 61 140
          45 117 44 123 61 139
          67 140 95 167 94 173
          48 43 42 121 42 120
          48 121 48 49 43 121
          56 50 49 128 122 121
          49 128 44 116 43 122
          116 121 43 122 49 50
          44 122 123 122 50 128
          49 44 43 122 43 121
          49 122 68 63 62 141
          50 45 44 123 44 122
          50 123 51 123 50 129
          124 123 51 129 123 128
          50 129 129 128 56 136
          183 255 182 261 63 135
          62 141 69 63 68 141
          58 59 53 131 55 134
          62 135 66 67 61 139
          133 138 60 139 90 85
          84 163 49 121 48 128
          63 141 69 142 127 134
          55 135 166 165 93 171
          94 87 93 166 50 122
          49 128 59 131 58 137
          162 161 89 168 60 132
          59 138 54 126 53 132
          111 183 110 189 52 124
          51 130 124 119 118 197
          56 51 50 129 50 128
          56 129 56 57 51 129
          57 129 56 136 124 129
          51 130 57 58 52 130
          58 130 57 136 64 57
          56 136 57 52 51 130
          51 129 57 130 58 53
          52 131 52 130 58 131
          182 175 181 254 64 58
          57 136 131 130 58 136
          130 129 57 136 133 132
          60 138 132 131 59 137
          64 59 58 137 66 138
          65 144 90 162 89 168
          132 137 59 138 61 133
          60 139 135 134 62 140
          62 140 68 141 147 146
          74 152 134 133 61 139
          143 150 71 151 67 68
          62 140 63 142 70 143
          66 61 60 139 110 103
          109 182 135 142 63 143
          62 134 61 140 70 63
          69 142 167 173 95 174
          67 62 61 140 71 63
          70 143 135 141 63 142
          135 140 62 141 58 136
          64 137 64 65 59 137
          170 169 97 176 137 136
          64 144 65 66 60 138
          146 73 74 152 65 60
          59 138 59 137 65 138
          60 138 66 139 141 140
          68 146 65 137 64 144
          72 65 64 144 139 144
          66 145 143 148 70 149
          108 186 114 187 72 66
          65 144 140 139 67 145
          142 141 69 147 132 127
          126 205 178 177 105 184
          175 181 103 182 79 71
          78 151 98 170 97 176
          146 145 73 152 102 180
          108 181 145 72 73 152
          71 150 78 151 123 118
          117 196 68 140 67 146
          72 73 67 145 72 67
          66 145 66 144 72 145
          140 145 67 146 69 141
          68 147 73 74 68 146
          73 68 67 146 67 145
          73 146 141 146 68 147
          145 144 72 152 74 75
          69 147 74 69 68 147
          68 146 74 147 70 142
          69 148 142 147 69 148
          75 76 70 148 75 70
          69 148 69 147 75 148
          76 71 70 149 70 148
          76 149 77 71 76 149
          78 71 77 150 71 149
          77 150 225 224 152 232
          147 219 146 225 198 191
          197 270 218 217 145 224
          219 218 146 224 151 223
          150 229 106 178 105 184
          147 74 75 153 152 74
          147 153 148 147 75 153
          148 75 76 154 153 75
          148 154 149 148 76 154
          183 189 111 190 149 76
          77 155 154 76 149 155
          150 149 77 155 121 122
          116 194 151 150 78 156
          150 77 78 156 155 77
          150 156 151 78 79 157
          156 78 151 157 151 157
          79 158 151 158 79 159
          103 181 109 182 94 166
          93 172 109 103 108 181
          87 165 93 166 167 172
          94 173 101 95 100 173