<?xml version="1.0"?>
<VTKFile type="UnstructuredGrid" version="0.1" byte_order="LittleEndian" header_type="UInt32" compressor="vtkZLibDataCompressor">
  <UnstructuredGrid>
    <Piece NumberOfPoints="1000" NumberOfCells="4350">
      <PointData>
        <DataArray type="Float64" Name="z0" format="ascii" RangeMin="0" RangeMax="29.7">
          0 0.3 0.6 0.9 1.2 1.5
          1.8 2.1 2.4 2.7 2 2.3
          2.6 2.9 3.2 3.5 3.8 4.1
          4.4 4.7 4 4.3 4.6 4.9
          5.2 5.5 5.8 6.1 6.4 6.7
          6 6.3 6.6 6.9 7.2 7.5
          7.8 8.1 8.4 8.7 8 8.3
          8.6 8.9 9.2 9.5 9.8 10.1
          10.4 10.7 10 10.3 10.6 10.9
          11.2 11.5 11.8 12.1 12.4 12.7
          12 12.3 12.6 12.9 13.2 13.5
          13.8 14.1 14.4 14.7 14 14.3
          14.6 14.9 15.2 15.5 15.8 16.1
          16.4 16.7 16 16.3 16.6 16.9
          17.2 17.5 17.8 18.1 18.4 18.7
          18 18.3 18.6 18.9 19.2 19.5
          19.8 20.1 20.4 20.7 1 1.3
          1.6 1.9 2.2 2.5 2.8 3.1
          3.4 3.7 3 3.3 3.6 3.9
          4.2 4.5 4.8 5.1 5.4 5.7
          5 5.3 5.6 5.9 6.2 6.5
          6.8 7.1 7.4 7.7 7 7.3
          7.6 7.9 8.2 8.5 8.8 9.1
          9.4 9.7 9 9.3 9.6 9.9
          10.2 10.5 10.8 11.1 11.4 11.7
          11 11.3 11.6 11.9 12.2 12.5
          12.8 13.1 13.4 13.7 13 13.3
          13.6 13.9 14.2 14.5 14.8 15.1
          15.4 15.7 15 15.3 15.6 15.9
          16.2 16.5 16.8 17.1 17.4 17.7
          17 17.3 17.6 17.9 18.2 18.5
          18.8 19.1 19.4 19.7 19 19.3
          19.6 19.9 20.2 20.5 20.8 21.1
          21.4 21.7 2 2.3 2.6 2.9
          3.2 3.5 3.8 4.1 4.4 4.7
          4 4.3 4.6 4.9 5.2 5.5
          5.8 6.1 6.4 6.7 6 6.3
          6.6 6.9 7.2 7.5 7.8 8.1
          8.4 8.7 8 8.3 8.6 8.9
          9.2 9.5 9.8 10.1 10.4 10.7
          10 10.3 10.6 10.9 11.2 11.5
          11.8 12.1 12.4 12.7 12 12.3
          12.6 12.9 13.2 13.5 13.8 14.1
          14.4 14.7 14 14.3 14.6 14.9
          15.2 15.5 15.8 16.1 16.4 16.7
          16 16.3 16.6 16.9 17.2 17.5
          17.8 18.1 18.4 18.7 18 18.3
          18.6 18.9 19.2 19.5 19.8 20.1
          20.4 20.7 20 20.3 20.6 20.9
          21.2 21.5 21.8 22.1 22.4 22.7
          3 3.3 3.6 3.9 4.2 4.5
          4.8 5.1 5.4 5.7 5 5.3
          5.6 5.9 6.2 6.5 6.8 7.1
          7.4 7.7 7 7.3 7.6 7.9
          8.2 8.5 8.8 9.1 9.4 9.7
          9 9.3 9.6 9.9 10.2 10.5
          10.8 11.1 11.4 11.7 11 11.3
          11.6 11.9 12.2 12.5 12.8 13.1
          13.4 13.7 13 13.3 13.6 13.9
          14.2 14.5 14.8 15.1 15.4 15.7
          15 15.3 15.6 15.9 16.2 16.5
          16.8 17.1 17.4 17.7 17 17.3
          17.6 17.9 18.2 18.5 18.8 19.1
          19.4 19.7 19 19.3 19.6 19.9
          20.2 20.5 20.8 21.1 21.4 21.7
          21 21.3 21.6 21.9 22.2 22.5
          22.8 23.1 23.4 23.7 4 4.3
          4.6 4.9 5.2 5.5 5.8 6.1
          6.4 6.7 6 6.3 6.6 6.9
          7.2 7.5 7.8 8.1 8.4 8.7
          8 8.3 8.6 8.9 9.2 9.5
          9.8 10.1 10.4 10.7 10 10.3
          10.6 10.9 11.2 11.5 11.8 12.1
          12.4 12.7 12 12.3 12.6 12.9
          13.2 13.5 13.8 14.1 14.4 14.7
          14 14.3 14.6 14.9 15.2 15.5
          15.8 16.1 16.4 16.7 16 16.3
          16.6 16.9 17.2 17.5 17.8 18.1
          18.4 18.7 18 18.3 18.6 18.9
          19.2 19.5 19.8 20.1 20.4 20.7
          20 20.3 20.6 20.9 21.2 21.5
          21.8 22.1 22.4 22.7 22 22.3
          22.6 22.9 23.2 23.5 23.8 24.1
          24.4 24.7 5 5.3 5.6 5.9
          6.2 6.5 6.8 7.1 7.4 7.7
          7 7.3 7.6 7.9 8.2 8.5
          8.8 9.1 9.4 9.7 9 9.3
          9.6 9.9 10.2 10.5 10.8 11.1
          11.4 11.7 11 11.3 11.6 11.9
          12.2 12.5 12.8 13.1 13.4 13.7
          13 13.3 13.6 13.9 14.2 14.5
          14.8 15.1 15.4 15.7 15 15.3
          15.6 15.9 16.2 16.5 16.8 17.1
          17.4 17.7 17 17.3 17.6 17.9
          18.2 18.5 18.8 19.1 19.4 19.7
          19 19.3 19.6 19.9 20.2 20.5
          20.8 21.1 21.4 21.7 21 21.3
          21.6 21.9 22.2 22.5 22.8 23.1
          23.4 23.7 23 23.3 23.6 23.9
          24.2 24.5 24.8 25.1 25.4 25.7
          6 6.3 6.6 6.9 7.2 7.5
          7.8 8.1 8.4 8.7 8 8.3
          8.6 8.9 9.2 9.5 9.8 10.1
          10.4 10.7 10 10.3 10.6 10.9
          11.2 11.5 11.8 12.1 12.4 12.7
          12 12.3 12.6 12.9 13.2 13.5
          13.8 14.1 14.4 14.7 14 14.3
          14.6 14.9 15.2 15.5 15.8 16.1
          16.4 16.7 16 16.3 16.6 16.9
          17.2 17.5 17.8 18.1 18.4 18.7
          18 18.3 18.6 18.9 19.2 19.5
          19.8 20.1 20.4 20.7 20 20.3
          20.6 20.9 21.2 21.5 21.8 22.1
          22.4 22.7 22 22.3 22.6 22.9
          23.2 23.5 23.8 24.1 24.4 24.7
          24 24.3 24.6 24.9 25.2 25.5
          25.8 26.1 26.4 26.7 7 7.3
          7.6 7.9 8.2 8.5 8.8 9.1
          9.4 9.7 9 9.3 9.6 9.9
          10.2 10.5 10.8 11.1 11.4 11.7
          11 11.3 11.6 11.9 12.2 12.5
          12.8 13.1 13.4 13.7 13 13.3
          13.6 13.9 14.2 14.5 14.8 15.1
          15.4 15.7 15 15.3 15.6 15.9
          16.2 16.5 16.8 17.1 17.4 17.7
          17 17.3 17.6 17.9 18.2 18.5
          18.8 19.1 19.4 19.7 19 19.3
          19.6 19.9 20.2 20.5 20.8 21.1
          21.4 21.7 21 21.3 21.6 21.9
          22.2 22.5 22.8 23.1 23.4 23.7
          23 23.3 23.6 23.9 24.2 24.5
          24.8 25.1 25.4 25.7 25 25.3
          25.6 25.9 26.2 26.5 26.8 27.1
          27.4 27.7 8 8.3 8.6 8.9
          9.2 9.5 9.8 10.1 10.4 10.7
          10 10.3 10.6 10.9 11.2 11.5
          11.8 12.1 12.4 12.7 12 12.3
          12.6 12.9 13.2 13.5 13.8 14.1
          14.4 14.7 14 14.3 14.6 14.9
          15.2 15.5 15.8 16.1 16.4 16.7
          16 16.3 16.6 16.9 17.2 17.5
          17.8 18.1 18.4 18.7 18 18.3
          18.6 18.9 19.2 19.5 19.8 20.1
          20.4 20.7 20 20.3 20.6 20.9
          21.2 21.5 21.8 22.1 22.4 22.7
          22 22.3 22.6 22.9 23.2 23.5
          23.8 24.1 24.4 24.7 24 24.3
          24.6 24.9 25.2 25.5 25.8 26.1
          26.4 26.7 26 26.3 26.6 26.9
          27.2 27.5 27.8 28.1 28.4 28.7
          9 9.3 9.6 9.9 10.2 10.5
          10.8 11.1 11.4 11.7 11 11.3
          11.6 11.9 12.2 12.5 12.8 13.1
          13.4 13.7 13 13.3 13.6 13.9
          14.2 14.5 14.8 15.1 15.4 15.7
          15 15.3 15.6 15.9 16.2 16.5
          16.8 17.1 17.4 17.7 17 17.3
          17.6 17.9 18.2 18.5 18.8 19.1
          19.4 19.7 19 19.3 19.6 19.9
          20.2 20.5 20.8 21.1 21.4 21.7
          21 21.3 21.6 21.9 22.2 22.5
          22.8 23.1 23.4 23.7 23 23.3
          23.6 23.9 24.2 24.5 24.8 25.1
          25.4 25.7 25 25.3 25.6 25.9
          26.2 26.5 26.8 27.1 27.4 27.7
          27 27.3 27.6 27.9 28.2 28.5
          28.8 29.1 29.4 29.7
        </DataArray>
        <DataArray type="Float64" Name="ks" format="ascii" RangeMin="20" RangeMax="20">
          20 20 20 20 20 20
          20 20 20 20 20 20
          20 20 20 20 20 20
          20 20 20 20 20 20
          20 20 20 20 20 20
          20 20 20 20 20 20
          20 20 20 20 20 20
          20 20 20 20 20 20
          20 20 20 20 20 20
          20 20 20 20 20 20
          20 20 20 20 20 20
          20 20 20 20 20 20
          20 20 20 20 20 20
          20 20 20 20 20 20
          20 20 20 20 20 20
          20 20 20 20 20 20
          20 20 20 20 20 20
          20 20 20 20 20 20
          20 20 20 20 20 20
          20 20 20 20 20 20
          20 20 20 20 20 20
          20 20 20 20 20 20
          20 20 20 20 20 20
          20 20 20 20 20 20
          20 20 20 20 20 20
          20 20 20 20 20 20
          20 20 20 20 20 20
          20 20 20 20 20 20
          20 20 20 20 20 20
          20 20 20 20 20 20
          20 20 20 20 20 20
          20 20 20 20 20 20
          20 20 20 20 20 20
          20 20 20 20 20 20
          20 20 20 20 20 20
          20 20 20 20 20 20
          20 20 20 20 20 20
          20 20 20 20 20 20
          20 20 20 20 20 20
          20 20 20 20 20 20
          20 20 20 20 20 20
          20 20 20 20 20 20
          20 20 20 20 20 20
          20 20 20 20 20 20
          20 20 20 20 20 20
          20 20 20 20 20 20
          20 20 20 20 20 20
          20 20 20 20 20 20
          20 20 20 20 20 20
          20 20 20 20 20 20
          20 20 20 20 20 20
          20 20 20 20 20 20
          20 20 20 20 20 20
          20 20 20 20 20 20
          20 20 20 20 20 20
          20 20 20 20 20 20
          20 20 20 20 20 20
          20 20 20 20 20 20
          20 20 20 20 20 20
          20 20 20 20 20 20
          20 20 20 20 20 20
          20 20 20 20 20 20
          20 20 20 20 20 20
          20 20 20 20 20 20
          20 20 20 20 20 20
          20 20 20 20 20 20
          20 20 20 20 20 20
          20 20 20 20 20 20
          20 20 20 20 20 20
          20 20 20 20 20 20
          20 20 20 20 20 20
          20 20 20 20 20 20
          20 20 20 20 20 20
          20 20 20 20 20 20
          20 20 20 20 20 20
          20 20 20 20 20 20
          20 20 20 20 20 20
          20 20 20 20 20 20
          20 20 20 20 20 20
          20 20 20 20 20 20
          20 20 20 20 20 20
          20 20 20 20 20 20
          20 20 20 20 20 20
          20 20 20 20 20 20
          20 20 20 20 20 20
          20 20 20 20 20 20
          20 20 20 20 20 20
          20 20 20 20 20 20
          20 20 20 20 20 20
          20 20 20 20 20 20
          20 20 20 20 20 20
          20 20 20 20 20 20
          20 20 20 20 20 20
          20 20 20 20 20 20
          20 20 20 20 20 20
          20 20 20 20 20 20
          20 20 20 20 20 20
          20 20 20 20 20 20
          20 20 20 20 20 20
          20 20 20 20 20 20
          20 20 20 20 20 20
          20 20 20 20 20 20
          20 20 20 20 20 20
          20 20 20 20 20 20
          20 20 20 20 20 20
          20 20 20 20 20 20
          20 20 20 20 20 20
          20 20 20 20 20 20
          20 20 20 20 20 20
          20 20 20 20 20 20
          20 20 20 20 20 20
          20 20 20 20 20 20
          20 20 20 20 20 20
          20 20 20 20 20 20
          20 20 20 20 20 20
          20 20 20 20 20 20
          20 20 20 20 20 20
          20 20 20 20 20 20
          20 20 20 20 20 20
          20 20 20 20 20 20
          20 20 20 20 20 20
          20 20 20 20 20 20
          20 20 20 20 20 20
          20 20 20 20 20 20
          20 20 20 20 20 20
          20 20 20 20 20 20
          20 20 20 20 20 20
          20 20 20 20 20 20
          20 20 20 20 20 20
          20 20 20 20 20 20
          20 20 20 20 20 20
          20 20 20 20 20 20
          20 20 20 20 20 20
          20 20 20 20 20 20
          20 20 20 20 20 20
          20 20 20 20 20 20
          20 20 20 20 20 20
          20 20 20 20 20 20
          20 20 20 20 20 20
          20 20 20 20 20 20
          20 20 20 20 20 20
          20 20 20 20 20 20
          20 20 20 20 20 20
          20 20 20 20 20 20
          20 20 20 20 20 20
          20 20 20 20 20 20
          20 20 20 20 20 20
          20 20 20 20 20 20
          20 20 20 20 20 20
          20 20 20 20 20 20
          20 20 20 20 20 20
          20 20 20 20 20 20
          20 20 20 20 20 20
          20 20 20 20 20 20
          20 20 20 20 20 20
          20 20 20 20 20 20
          20 20 20 20 20 20
          20 20 20 20 20 20
          20 20 20 20 20 20
          20 20 20 20 20 20
          20 20 20 20 20 20
          20 20 20 20 20 20
          20 20 20 20 20 20
          20 20 20 20 20 20
          20 20 20 20 20 20
          20 20 20 20 20 20
          20 20 20 20
        </DataArray>
      </PointData>
      <CellData>
      </CellData>
      <Points>
        <DataArray type="Float32" Name="Points" NumberOfComponents="3" format="ascii" RangeMin="0" RangeMax="1273.1386767">
          0 0 0 0 0 0.30000001192
          0 0 0.60000002384 0 0 0.89999997616
          0 0 1.2000000477 0 0 1.5
          0 0 1.7999999523 0 0 2.0999999046
          0 0 2.4000000954 0 0 2.7000000477
          0 100 2 0 100 2.2999999523
          0 100 2.5999999046 0 100 2.9000000954
          0 100 3.2000000477 0 100 3.5
          0 100 3.7999999523 0 100 4.0999999046
          0 100 4.4000000954 0 100 4.6999998093
          0 200 4 0 200 4.3000001907
          0 200 4.5999999046 0 200 4.9000000954
          0 200 5.1999998093 0 200 5.5
          0 200 5.8000001907 0 200 6.0999999046
          0 200 6.4000000954 0 200 6.6999998093
          0 300 6 0 300 6.3000001907
          0 300 6.5999999046 0 300 6.9000000954
          0 300 7.1999998093 0 300 7.5
          0 300 7.8000001907 0 300 8.1000003815
          0 300 8.3999996185 0 300 8.6999998093
          0 400 8 0 400 8.3000001907
          0 400 8.6000003815 0 400 8.8999996185
          0 400 9.1999998093 0 400 9.5
          0 400 9.8000001907 0 400 10.100000381
          0 400 10.399999619 0 400 10.699999809
          0 500 10 0 500 10.300000191
          0 500 10.600000381 0 500 10.899999619
          0 500 11.199999809 0 500 11.5
          0 500 11.800000191 0 500 12.100000381
          0 500 12.399999619 0 500 12.699999809
          0 600 12 0 600 12.300000191
          0 600 12.600000381 0 600 12.899999619
          0 600 13.199999809 0 600 13.5
          0 600 13.800000191 0 600 14.100000381
          0 600 14.399999619 0 600 14.699999809
          0 700 14 0 700 14.300000191
          0 700 14.600000381 0 700 14.899999619
          0 700 15.199999809 0 700 15.5
          0 700 15.800000191 0 700 16.100000381
          0 700 16.399999619 0 700 16.700000763
          0 800 16 0 800 16.299999237
          0 800 16.600000381 0 800 16.899999619
          0 800 17.200000763 0 800 17.5
          0 800 17.799999237 0 800 18.100000381
          0 800 18.399999619 0 800 18.700000763
          0 900 18 0 900 18.299999237
          0 900 18.600000381 0 900 18.899999619
          0 900 19.200000763 0 900 19.5
          0 900 19.799999237 0 900 20.100000381
          0 900 20.399999619 0 900 20.700000763
          100 0 1 100 0 1.2999999523
          100 0 1.6000000238 100 0 1.8999999762
          100 0 2.2000000477 100 0 2.5
          100 0 2.7999999523 100 0 3.0999999046
          100 0 3.4000000954 100 0 3.7000000477
          100 100 3 100 100 3.2999999523
          100 100 3.5999999046 100 100 3.9000000954
          100 100 4.1999998093 100 100 4.5
          100 100 4.8000001907 100 100 5.0999999046
          100 100 5.4000000954 100 100 5.6999998093
          100 200 5 100 200 5.3000001907
          100 200 5.5999999046 100 200 5.9000000954
          100 200 6.1999998093 100 200 6.5
          100 200 6.8000001907 100 200 7.0999999046
          100 200 7.4000000954 100 200 7.6999998093
          100 300 7 100 300 7.3000001907
          100 300 7.5999999046 100 300 7.9000000954
          100 300 8.1999998093 100 300 8.5
          100 300 8.8000001907 100 300 9.1000003815
          100 300 9.3999996185 100 300 9.6999998093
          100 400 9 100 400 9.3000001907
          100 400 9.6000003815 100 400 9.8999996185
          100 400 10.199999809 100 400 10.5
          100 400 10.800000191 100 400 11.100000381
          100 400 11.399999619 100 400 11.699999809
          100 500 11 100 500 11.300000191
          100 500 11.600000381 100 500 11.899999619
          100 500 12.199999809 100 500 12.5
          100 500 12.800000191 100 500 13.100000381
          100 500 13.399999619 100 500 13.699999809
          100 600 13 100 600 13.300000191
          100 600 13.600000381 100 600 13.899999619
          100 600 14.199999809 100 600 14.5
          100 600 14.800000191 100 600 15.100000381
          100 600 15.399999619 100 600 15.699999809
          100 700 15 100 700 15.300000191
          100 700 15.600000381 100 700 15.899999619
          100 700 16.200000763 100 700 16.5
          100 700 16.799999237 100 700 17.100000381
          100 700 17.399999619 100 700 17.700000763
          100 800 17 100 800 17.299999237
          100 800 17.600000381 100 800 17.899999619
          100 800 18.200000763 100 800 18.5
          100 800 18.799999237 100 800 19.100000381
          100 800 19.399999619 100 800 19.700000763
          100 900 19 100 900 19.299999237
          100 900 19.600000381 100 900 19.899999619
          100 900 20.200000763 100 900 20.5
          100 900 20.799999237 100 900 21.100000381
          100 900 21.399999619 100 900 21.700000763
          200 0 2 200 0 2.2999999523
          200 0 2.5999999046 200 0 2.9000000954
          200 0 3.2000000477 200 0 3.5
          200 0 3.7999999523 200 0 4.0999999046
          200 0 4.4000000954 200 0 4.6999998093
          200 100 4 200 100 4.3000001907
          200 100 4.5999999046 200 100 4.9000000954
          200 100 5.1999998093 200 100 5.5
          200 100 5.8000001907 200 100 6.0999999046
          200 100 6.4000000954 200 100 6.6999998093
          200 200 6 200 200 6.3000001907
          200 200 6.5999999046 200 200 6.9000000954
          200 200 7.1999998093 200 200 7.5
          200 200 7.8000001907 200 200 8.1000003815
          200 200 8.3999996185 200 200 8.6999998093
          200 300 8 200 300 8.3000001907
          200 300 8.6000003815 200 300 8.8999996185
          200 300 9.1999998093 200 300 9.5
          200 300 9.8000001907 200 300 10.100000381
          200 300 10.399999619 200 300 10.699999809
          200 400 10 200 400 10.300000191
          200 400 10.600000381 200 400 10.899999619
          200 400 11.199999809 200 400 11.5
          200 400 11.800000191 200 400 12.100000381
          200 400 12.399999619 200 400 12.699999809
          200 500 12 200 500 12.300000191
          200 500 12.600000381 200 500 12.899999619
          200 500 13.199999809 200 500 13.5
          200 500 13.800000191 200 500 14.100000381
          200 500 14.399999619 200 500 14.699999809
          200 600 14 200 600 14.300000191
          200 600 14.600000381 200 600 14.899999619
          200 600 15.199999809 200 600 15.5
          200 600 15.800000191 200 600 16.100000381
          200 600 16.399999619 200 600 16.700000763
          200 700 16 200 700 16.299999237
          200 700 16.600000381 200 700 16.899999619
          200 700 17.200000763 200 700 17.5
          200 700 17.799999237 200 700 18.100000381
          200 700 18.399999619 200 700 18.700000763
          200 800 18 200 800 18.299999237
          200 800 18.600000381 200 800 18.899999619
          200 800 19.200000763 200 800 19.5
          200 800 19.799999237 200 800 20.100000381
          200 800 20.399999619 200 800 20.700000763
          200 900 20 200 900 20.299999237
          200 900 20.600000381 200 900 20.899999619
          200 900 21.200000763 200 900 21.5
          200 900 21.799999237 200 900 22.100000381
          200 900 22.399999619 200 900 22.700000763
          300 0 3 300 0 3.2999999523
          300 0 3.5999999046 300 0 3.9000000954
          300 0 4.1999998093 300 0 4.5
          300 0 4.8000001907 300 0 5.0999999046
          300 0 5.4000000954 300 0 5.6999998093
          300 100 5 300 100 5.3000001907
          300 100 5.5999999046 300 100 5.9000000954
          300 100 6.1999998093 300 100 6.5
          300 100 6.8000001907 300 100 7.0999999046
          300 100 7.4000000954 300 100 7.6999998093
          300 200 7 300 200 7.3000001907
          300 200 7.5999999046 300 200 7.9000000954
          300 200 8.1999998093 300 200 8.5
          300 200 8.8000001907 300 200 9.1000003815
          300 200 9.3999996185 300 200 9.6999998093
          300 300 9 300 300 9.3000001907
          300 300 9.6000003815 300 300 9.8999996185
          300 300 10.199999809 300 300 10.5
          300 300 10.800000191 300 300 11.100000381
          300 300 11.399999619 300 300 11.699999809
          300 400 11 300 400 11.300000191
          300 400 11.600000381 300 400 11.899999619
          300 400 12.199999809 300 400 12.5
          300 400 12.800000191 300 400 13.100000381
          300 400 13.399999619 300 400 13.699999809
          300 500 13 300 500 13.300000191
          300 500 13.600000381 300 500 13.899999619
          300 500 14.199999809 300 500 14.5
          300 500 14.800000191 300 500 15.100000381
          300 500 15.399999619 300 500 15.699999809
          300 600 15 300 600 15.300000191
          300 600 15.600000381 300 600 15.899999619
          300 600 16.200000763 300 600 16.5
          300 600 16.799999237 300 600 17.100000381
          300 600 17.399999619 300 600 17.700000763
          300 700 17 300 700 17.299999237
          300 700 17.600000381 300 700 17.899999619
          300 700 18.200000763 300 700 18.5
          300 700 18.799999237 300 700 19.100000381
          300 700 19.399999619 300 700 19.700000763
          300 800 19 300 800 19.299999237
          300 800 19.600000381 300 800 19.899999619
          300 800 20.200000763 300 800 20.5
          300 800 20.799999237 300 800 21.100000381
          300 800 21.399999619 300 800 21.700000763
          300 900 21 300 900 21.299999237
          300 900 21.600000381 300 900 21.899999619
          300 900 22.200000763 300 900 22.5
          300 900 22.799999237 300 900 23.100000381
          300 900 23.399999619 300 900 23.700000763
          400 0 4 400 0 4.3000001907
          400 0 4.5999999046 400 0 4.9000000954
          400 0 5.1999998093 400 0 5.5
          400 0 5.8000001907 400 0 6.0999999046
          400 0 6.4000000954 400 0 6.6999998093
          400 100 6 400 100 6.3000001907
          400 100 6.5999999046 400 100 6.9000000954
          400 100 7.1999998093 400 100 7.5
          400 100 7.8000001907 400 100 8.1000003815
          400 100 8.3999996185 400 100 8.6999998093
          400 200 8 400 200 8.3000001907
          400 200 8.6000003815 400 200 8.8999996185
          400 200 9.1999998093 400 200 9.5
          400 200 9.8000001907 400 200 10.100000381
          400 200 10.399999619 400 200 10.699999809
          400 300 10 400 300 10.300000191
          400 300 10.600000381 400 300 10.899999619
          400 300 11.199999809 400 300 11.5
          400 300 11.800000191 400 300 12.100000381
          400 300 12.399999619 400 300 12.699999809
          400 400 12 400 400 12.300000191
          400 400 12.600000381 400 400 12.899999619
          400 400 13.199999809 400 400 13.5
          400 400 13.800000191 400 400 14.100000381
          400 400 14.399999619 400 400 14.699999809
          400 500 14 400 500 14.300000191
          400 500 14.600000381 400 500 14.899999619
          400 500 15.199999809 400 500 15.5
          400 500 15.800000191 400 500 16.100000381
          400 500 16.399999619 400 500 16.700000763
          400 600 16 400 600 16.299999237
          400 600 16.600000381 400 600 16.899999619
          400 600 17.200000763 400 600 17.5
          400 600 17.799999237 400 600 18.100000381
          400 600 18.399999619 400 600 18.700000763
          400 700 18 400 700 18.299999237
          400 700 18.600000381 400 700 18.899999619
          400 700 19.200000763 400 700 19.5
          400 700 19.799999237 400 700 20.100000381
          400 700 20.399999619 400 700 20.700000763
          400 800 20 400 800 20.299999237
          400 800 20.600000381 400 800 20.899999619
          400 800 21.200000763 400 800 21.5
          400 800 21.799999237 400 800 22.100000381
          400 800 22.399999619 400 800 22.700000763
          400 900 22 400 900 22.299999237
          400 900 22.600000381 400 900 22.899999619
          400 900 23.200000763 400 900 23.5
          400 900 23.799999237 400 900 24.100000381
          400 900 24.399999619 400 900 24.700000763
          500 0 5 500 0 5.3000001907
          500 0 5.5999999046 500 0 5.9000000954
          500 0 6.1999998093 500 0 6.5
          500 0 6.8000001907 500 0 7.0999999046
          500 0 7.4000000954 500 0 7.6999998093
          500 100 7 500 100 7.3000001907
          500 100 7.5999999046 500 100 7.9000000954
          500 100 8.1999998093 500 100 8.5
          500 100 8.8000001907 500 100 9.1000003815
          500 100 9.3999996185 500 100 9.6999998093
          500 200 9 500 200 9.3000001907
          500 200 9.6000003815 500 200 9.8999996185
          500 200 10.199999809 500 200 10.5
          500 200 10.800000191 500 200 11.100000381
          500 200 11.399999619 500 200 11.699999809
          500 300 11 500 300 11.300000191
          500 300 11.600000381 500 300 11.899999619
          500 300 12.199999809 500 300 12.5
          500 300 12.800000191 500 300 13.100000381
          500 300 13.399999619 500 300 13.699999809
          500 400 13 500 400 13.300000191
          500 400 13.600000381 500 400 13.899999619
          500 400 14.199999809 500 400 14.5
          500 400 14.800000191 500 400 15.100000381
          500 400 15.399999619 500 400 15.699999809
          500 500 15 500 500 15.300000191
          500 500 15.600000381 500 500 15.899999619
          500 500 16.200000763 500 500 16.5
          500 500 16.799999237 500 500 17.100000381
          500 500 17.399999619 500 500 17.700000763
          500 600 17 500 600 17.299999237
          500 600 17.600000381 500 600 17.899999619
          500 600 18.200000763 500 600 18.5
          500 600 18.799999237 500 600 19.100000381
          500 600 19.399999619 500 600 19.700000763
          500 700 19 500 700 19.299999237
          500 700 19.600000381 500 700 19.899999619
          500 700 20.200000763 500 700 20.5
          500 700 20.799999237 500 700 21.100000381
          500 700 21.399999619 500 700 21.700000763
          500 800 21 500 800 21.299999237
          500 800 21.600000381 500 800 21.899999619
          500 800 22.200000763 500 800 22.5
          500 800 22.799999237 500 800 23.100000381
          500 800 23.399999619 500 800 23.700000763
          500 900 23 500 900 23.299999237
          500 900 23.600000381 500 900 23.899999619
          500 900 24.200000763 500 900 24.5
          500 900 24.799999237 500 900 25.100000381
          500 900 25.399999619 500 900 25.700000763
          600 0 6 600 0 6.3000001907
          600 0 6.5999999046 600 0 6.9000000954
          600 0 7.1999998093 600 0 7.5
          600 0 7.8000001907 600 0 8.1000003815
          600 0 8.3999996185 600 0 8.6999998093
          600 100 8 600 100 8.3000001907
          600 100 8.6000003815 600 100 8.8999996185
          600 100 9.1999998093 600 100 9.5
          600 100 9.8000001907 600 100 10.100000381
          600 100 10.399999619 600 100 10.699999809
          600 200 10 600 200 10.300000191
          600 200 10.600000381 600 200 10.899999619
          600 200 11.199999809 600 200 11.5
          600 200 11.800000191 600 200 12.100000381
          600 200 12.399999619 600 200 12.699999809
          600 300 12 600 300 12.300000191
          600 300 12.600000381 600 300 12.899999619
          600 300 13.199999809 600 300 13.5
          600 300 13.800000191 600 300 14.100000381
          600 300 14.399999619 600 300 14.699999809
          600 400 14 600 400 14.300000191
          600 400 14.600000381 600 400 14.899999619
          600 400 15.199999809 600 400 15.5
          600 400 15.800000191 600 400 16.100000381
          600 400 16.399999619 600 400 16.700000763
          600 500 16 600 500 16.299999237
          600 500 16.600000381 600 500 16.899999619
          600 500 17.200000763 600 500 17.5
          600 500 17.799999237 600 500 18.100000381
          600 500 18.399999619 600 500 18.700000763
          600 600 18 600 600 18.299999237
          600 600 18.600000381 600 600 18.899999619
          600 600 19.200000763 600 600 19.5
          600 600 19.799999237 600 600 20.100000381
          600 600 20.399999619 600 600 20.700000763
          600 700 20 600 700 20.299999237
          600 700 20.600000381 600 700 20.899999619
          600 700 21.200000763 600 700 21.5
          600 700 21.799999237 600 700 22.100000381
          600 700 22.399999619 600 700 22.700000763
          600 800 22 600 800 22.299999237
          600 800 22.600000381 600 800 22.899999619
          600 800 23.200000763 600 800 23.5
          600 800 23.799999237 600 800 24.100000381
          600 800 24.399999619 600 800 24.700000763
          600 900 24 600 900 24.299999237
          600 900 24.600000381 600 900 24.899999619
          600 900 25.200000763 600 900 25.5
          600 900 25.799999237 600 900 26.100000381
          600 900 26.399999619 600 900 26.700000763
          700 0 7 700 0 7.3000001907
          700 0 7.5999999046 700 0 7.9000000954
          700 0 8.1999998093 700 0 8.5
          700 0 8.8000001907 700 0 9.1000003815
          700 0 9.3999996185 700 0 9.6999998093
          700 100 9 700 100 9.3000001907
          700 100 9.6000003815 700 100 9.8999996185
          700 100 10.199999809 700 100 10.5
          700 100 10.800000191 700 100 11.100000381
          700 100 11.399999619 700 100 11.699999809
          700 200 11 700 200 11.300000191
          700 200 11.600000381 700 200 11.899999619
          700 200 12.199999809 700 200 12.5
          700 200 12.800000191 700 200 13.100000381
          700 200 13.399999619 700 200 13.699999809
          700 300 13 700 300 13.300000191
          700 300 13.600000381 700 300 13.899999619
          700 300 14.199999809 700 300 14.5
          700 300 14.800000191 700 300 15.100000381
          700 300 15.399999619 700 300 15.699999809
          700 400 15 700 400 15.300000191
          700 400 15.600000381 700 400 15.899999619
          700 400 16.200000763 700 400 16.5
          700 400 16.799999237 700 400 17.100000381
          700 400 17.399999619 700 400 17.700000763
          700 500 17 700 500 17.299999237
          700 500 17.600000381 700 500 17.899999619
          700 500 18.200000763 700 500 18.5
          700 500 18.799999237 700 500 19.100000381
          700 500 19.399999619 700 500 19.700000763
          700 600 19 700 600 19.299999237
          700 600 19.600000381 700 600 19.899999619
          700 600 20.200000763 700 600 20.5
          700 600 20.799999237 700 600 21.100000381
          700 600 21.399999619 700 600 21.700000763
          700 700 21 700 700 21.299999237
          700 700 21.600000381 700 700 21.899999619
          700 700 22.200000763 700 700 22.5
          700 700 22.799999237 700 700 23.100000381