<?xml version="1.0"?>
<VTKFile type="UnstructuredGrid" version="0.1" byte_order="LittleEndian" header_type="UInt32" compressor="vtkZLibDataCompressor">
  <UnstructuredGrid>
    <Piece NumberOfPoints="125" NumberOfCells="381">
      <PointData>
        <DataArray type="Float64" Name="z0" format="ascii" RangeMin="0" RangeMax="16">
          0 1 2 3 4 2
          3 4 5 6 4 5
          6 7 8 6 7 8
          9 10 8 9 10 11
          12 1 2 3 4 5
          3 4 5 6 7 5
          6 7 8 9 7 8
          9 10 11 9 10 11
          12 13 2 3 4 5
          6 4 5 6 7 8
          6 7 8 9 10 8
          9 10 11 12 10 11
          12 13 14 3 4 5
          6 7 5 6 7 8
          9 7 8 9 10 11
          9 10 11 12 13 11
          12 13 14 15 4 5
          6 7 8 6 7 8
          9 10 8 9 10 11
          12 10 11 12 13 14
          12 13 14 15 16
        </DataArray>
        <DataArray type="Float64" Name="ks" format="ascii" RangeMin="20" RangeMax="20">
          20 20 20 20 20 20
          20 20 20 20 20 20
          20 20 20 20 20 20
          20 20 20 20 20 20
          20 20 20 20 20 20
          20 20 20 20 20 20
          20 20 20 20 20 20
          20 20 20 20 20 20
          20 20 20 20 20 20
          20 20 20 20 20 20
          20 20 20 20 20 20
          20 20 20 20 20 20
          20 20 20 20 20 20
          20 20 20 20 20 20
          20 20 20 20 20 20
          20 20 20 20 20 20
          20 20 20 20 20 20
          20 20 20 20 20 20
          20 20 20 20 20 20
          20 20 20 20 20 20
          20 20 20 20 20
        </DataArray>
        <DataArray type="Float64" Name="theta_1" format="ascii" RangeMin="0.37970178097" RangeMax="0.40519613608">
          0.40519613608 0.4043977362 0.40358247883 0.40272994481 0.40180714622 0.40410901482
          0.40328200355 0.40241603723 0.4014063083 0.39984905429 0.40373524395 0.40289335506
          0.40198365212 0.40082336805 0.39772462003 0.40361366134 0.40276289858 0.40184272619
          0.40061911051 0.39593949881 0.40316326033 0.40228342518 0.40124792623 0.39946781857
          0.38642136627 0.40470849581 0.40389945521 0.40306667561 0.40217429207 0.40110014733
          0.40360209815 0.40275038731 0.40182898753 0.40059828009 0.39571711574 0.40345831707
          0.40260024687 0.40164230505 0.40028424619 0.39284728964 0.40338341347 0.40252205387
          0.40154227035 0.40012061432 0.3911926757 0.40295584278 0.40205143036 0.40092227152
          0.39830909624 0.3827289793 0.40447294718 0.40365955138 0.40281215247 0.4018959823
          0.40069642815 0.40352213642 0.40266685308 0.40172747616 0.40042346882 0.39418743325
          0.40342273739 0.40256311098 0.40159481204 0.40020659874 0.39206868111 0.40335251538
          0.40248980026 0.40150101107 0.40005313364 0.39050236776 0.40292765528 0.40202098351
          0.40087816345 0.3980803155 0.38231476435 0.40425878433 0.4034370478 0.40257802857
          0.40161386692 0.40023774292 0.40346566499 0.40260789941 0.40165204903 0.40030007274
          0.39300146532 0.40338747877 0.40252630166 0.40154771485 0.40012954512 0.39128424986
          0.40331933699 0.40245516153 0.40145668793 0.39997144837 0.38976179645 0.40289869679
          0.40198969668 0.40083281858 0.39779102111 0.38190213002 0.40376448721 0.40292474503
          0.40201758706 0.40087260866 0.39803930663 0.40323141027 0.40236031624 0.40133892305
          0.3996869683 0.38782859118 0.40317797364 0.40230004187 0.4012676299 0.39951541054
          0.38672025337 0.40311353226 0.40222732147 0.40117739625 0.39925093489 0.38544875194
          0.40272020174 0.4017962407 0.40053738178 0.39522763961 0.37970178097
        </DataArray>
        <DataArray type="Float64" Name="theta_5" format="ascii" RangeMin="0.29850890483" RangeMax="0.42598068038">
          0.42598068038 0.42198868099 0.41791239414 0.41364972407 0.40903573109 0.42054507412
          0.41641001773 0.41208018616 0.40703154148 0.39924527143 0.41867621974 0.41446677529
          0.40991826058 0.40411684023 0.38862310017 0.4180683067 0.41381449289 0.40921363095
          0.40309555254 0.37969749404 0.41581630164 0.41141712588 0.40623963115 0.39733909286
          0.33210683134 0.42354247903 0.41949727606 0.41533337803 0.41087146034 0.40550073664
          0.41801049077 0.41375193657 0.40914493766 0.40299140046 0.37858557869 0.41729158533
          0.41300123435 0.40821152525 0.40142123095 0.36423644819 0.41691706737 0.41261026936
          0.40771135175 0.40060307159 0.35596337852 0.41477921392 0.4102571518 0.40461135759
          0.39154548118 0.31364489651 0.42236473588 0.4182977569 0.41406076237 0.40947991151
          0.40348214075 0.4176106821 0.4133342654 0.40863738081 0.40211734408 0.37093716625
          0.41711368694 0.4128155549 0.40797406018 0.40103299369 0.36034340553 0.4167625769
          0.41244900129 0.40750505536 0.40026566821 0.35251183878 0.4146382764 0.41010491756
          0.40439081725 0.39040157748 0.31157382174 0.42129392164 0.417185239 0.41289014283
          0.40806933462 0.4011887146 0.41732832495 0.41303949705 0.40826024517 0.40150036371
          0.36500732662 0.41693739383 0.4126315083 0.40773857423 0.4006477256 0.35642124931
          0.41659668493 0.41227580764 0.40728343963 0.39985724184 0.34880898225 0.41449348393
          0.40994848339 0.4041640929 0.38895510557 0.30951065012 0.41882243603 0.41462372516
          0.41008793528 0.40436304328 0.39019653316 0.41615705133 0.41180158119 0.40669461523
          0.39843484148 0.3391429559 0.41588986822 0.41150020935 0.40633814949 0.3975770527
          0.33360126684 0.41556766131 0.41113660734 0.40588698124 0.39625467446 0.32724375968
          0.4136010087 0.40898120349 0.40268690891 0.37613819803 0.29850890483
        </DataArray>
        <DataArray type="Float64" Name="theta_25" format="ascii" RangeMin="0.15239127092" RangeMax="0.47080914666">
          0.47080914666 0.46303396318 0.45519369914 0.44725440443 0.43915146747 0.45801228371
          0.45011241051 0.44208131308 0.43383672388 0.42513238884 0.44750720131 0.43943665351
          0.43108055068 0.42219260688 0.41130011059 0.43850304686 0.43013904361 0.42117270331
          0.41016381458 0.38542563368 0.42888981955 0.41979077891 0.40817072217 0.37599655512
          0.21787895909 0.46415039702 0.45631956233 0.44839628948 0.44033262132 0.4320032809
          0.45125177004 0.4432437394 0.43503933208 0.42642888909 0.41665925926 0.44062064275
          0.43233469518 0.42352415111 0.413116578 0.39189570036 0.43337560974 0.42474119863
          0.41480773444 0.4001219596 0.30154956281 0.42544311359 0.41570820802 0.40154183016
          0.31641616745 0.18073809733 0.45836177383 0.45046962547 0.44244503515 0.43422319222
          0.42555605201 0.4456262029 0.43748952863 0.42905068371 0.41985381658 0.40778269569
          0.43619650786 0.42771219595 0.41840196091 0.40594234909 0.35573584641 0.43153096243
          0.4227190818 0.41229455929 0.39387860612 0.26240978063 0.4244933309 0.41453599668
          0.39901818979 0.29763652836 0.17390512324 0.45270783341 0.4447393618 0.43657434848
          0.42810517328 0.41873783883 0.44008381708 0.43177240909 0.42293625058 0.41236022611
          0.39050939776 0.43328947193 0.42465126618 0.41469265078 0.39995228738 0.29961966166
          0.43013729123 0.42116731971 0.41016841078 0.38588096339 0.23779558481 0.42356352125
          0.41332684598 0.39592544561 0.28038750332 0.16809130702 0.44615086811 0.43804309364
          0.42963413919 0.42064226237 0.40924731992 0.43352973985 0.42489382443 0.41501263982
          0.4001094649 0.30501303163 0.42913377893 0.42005447615 0.40855327088 0.37831757563
          0.22135793166 0.42681266515 0.41737920664 0.4044014843 0.34278648726 0.19400093748
          0.42046220337 0.40913100416 0.3762657311 0.23020338857 0.15239127092
        </DataArray>
        <DataArray type="Float64" Name="theta_50" format="ascii" RangeMin="0.13019109898" RangeMax="0.48531800629">
          0.48531800629 0.47762808956 0.46989806778 0.46212067814 0.45427970219 0.47088026861
          0.46310847773 0.4552747037 0.44734649902 0.43926105293 0.4569883136 0.44908502449
          0.4410461673 0.43277524025 0.42411441824 0.44299007746 0.4347916015 0.42622042461
          0.41670286815 0.40330261315 0.42787327748 0.41869171985 0.40657552125 0.36336243287
          0.20446694586 0.47794680793 0.47021820884 0.4624426544 0.45460402176 0.44666051532
          0.4635574448 0.4557269481 0.44780906104 0.43973216543 0.43142497362 0.44981745548
          0.44180190285 0.43355181234 0.42492551312 0.41504452084 0.43594237127 0.42742215399
          0.41820367507 0.40582162404 0.35589433128 0.42186157925 0.41117423201 0.39058345062
          0.24752081961 0.15733661142 0.47071685654 0.46294413618 0.45510916058 0.44717718023
          0.43908860541 0.45646517938 0.44855684441 0.44050118409 0.43221522189 0.42349141192
          0.44320824892 0.43501993555 0.42645888626 0.41700823278 0.40380284027 0.43081581943
          0.42191134003 0.41124564831 0.39080770283 0.24828966772 0.41862853723 0.40648489182
          0.36244839933 0.20380663219 0.14460676665 0.46337785884 0.45554605148 0.4476240326
          0.43954372334 0.43123132144 0.44917335154 0.44113729866 0.43286887075 0.42421218469
          0.41413094533 0.43612064909 0.42761174917 0.41840841091 0.40616328979 0.35910199581
          0.42657469082 0.41715667087 0.40404625662 0.34018952546 0.19031078005 0.41621872762
          0.40251137883 0.32521729961 0.18350028343 0.13855482037 0.45576394347 0.44784689741
          0.43977069233 0.43146455137 0.42264395487 0.4414482309 0.43318833584 0.4245457436
          0.41455789957 0.39968785101 0.42867493614 0.41955782626 0.40783080512 0.37435003124
          0.21451629589 0.42128670917 0.41034088677 0.38790237307 0.23847007176 0.1546612358
          0.41128310363 0.39093702911 0.24880493339 0.15780601978 0.13019109898
        </DataArray>
        <DataArray type="Float64" Name="theta_100" format="ascii" RangeMin="0.12090382024" RangeMax="0.49307221999">
          0.49307221999 0.48541033917 0.47772104383 0.46999142647 0.46221458712 0.47782013108
          0.47009096119 0.46231468711 0.45447512165 0.44652867825 0.46243704636 0.45459837424
          0.44665474228 0.43855650737 0.43021687194 0.44664192791 0.4385434536 0.43020345139
          0.42122024913 0.41024384681 0.42983401873 0.42081104687 0.40964990982 0.38491354892
          0.23134715775 0.48558981498 0.47790171457 0.47017291297 0.46239710475 0.45455814143
          0.47033047087 0.46255555793 0.45471775083 0.44677684267 0.43868086615 0.45496565055
          0.44703039816 0.43893910869 0.43061003111 0.42167926546 0.43911958437 0.43079546886
          0.42188856916 0.41121324577 0.39070739146 0.42186002317 0.41117172906 0.39057397588
          0.24747912524 0.15731617251 0.47819702893 0.47047028335 0.46269616474 0.45485938435
          0.44692170814 0.46296132897 0.45512648454 0.44719490173 0.43910665512 0.4307822038
          0.44770335916 0.43962451374 0.43131435183 0.42247440405 0.41205159761 0.43197902959
          0.4232246988 0.41294037465 0.39578526737 0.27119179857 0.41440526578 0.39932030589
          0.2948614237 0.17203089155 0.13480418366 0.47076613767 0.46299370044 0.45515909215
          0.44722825347 0.43914062419 0.45554291322 0.44762083137 0.43954045975 0.43122797932
          0.42237689731 0.44038314841 0.43209391561 0.42335446795 0.41309431744 0.39615736663
          0.42506953174 0.41522885878 0.40088736266 0.3086417855 0.17695602092 0.40682300628
          0.36572818154 0.20638203875 0.14534825543 0.12584324603 0.46316578144 0.45533242962
          0.44740554547 0.43932119385 0.43100266372 0.44784671425 0.43977051907 0.43146438578
          0.42264378302 0.41225228872 0.43242685648 0.42373022922 0.4135392631 0.39722980991
          0.28065153096 0.41717102677 0.4040695791 0.34040185345 0.19041662673 0.14052650713
          0.3942310612 0.26140115106 0.16147433994 0.13146277204 0.12090382024
        </DataArray>
        <DataArray type="Float64" Name="theta_200" format="ascii" RangeMin="0.11775696297" RangeMax="0.49554648261">
          0.49554648261 0.48789076268 0.4802099648 0.47249732007 0.46473709779 0.48018852409
          0.47247591872 0.46471536529 0.45689332578 0.44898912556 0.46466075526 0.45683830921
          0.44893358571 0.44088992233 0.43261468804 0.4488246493 0.44077750277 0.43249916361
          0.42381207345 0.41363648105 0.43231143024 0.42360005178 0.41338526332 0.39685922449
          0.27820650146 0.4879423002 0.48026137026 0.47254931401 0.46478934337 0.45696789094
          0.47253962582 0.46477969937 0.45695819987 0.4490545185 0.44101478187 0.45692546979
          0.44902172742 0.44098065682 0.43270809508 0.42404420955 0.44089334181 0.43261818213
          0.42394639035 0.41379569717 0.39784968695 0.4237561847 0.41357014201 0.39730554039
          0.28116785352 0.16757932148 0.4803503171 0.47263829046 0.46487945455 0.45705850495
          0.44915598854 0.46489506008 0.45707442611 0.44917178918 0.44113589073 0.43286733941
          0.44919162501 0.44115614137 0.43288832906 0.42423244584 0.41415701765 0.43287244435
          0.42421594031 0.41413574446 0.39866995837 0.2903952343 0.41410788107 0.3986027368
          0.28993669792 0.17044265191 0.13429714957 0.47273516253 0.46497726448 0.45715714426
          0.44925545995 0.44122204531 0.45720941925 0.44930814311 0.44127650784 0.43301192773
          0.42436159829 0.44138994419 0.43312855229 0.42448341268 0.41447834604 0.39949670088
          0.42468405423 0.41473528943 0.40007909767 0.30036718439 0.17400708179 0.40083245361
          0.3080851724 0.17676355265 0.13615200993 0.12253512269 0.46504199021 0.4572224089
          0.44932127571 0.44129001648 0.43302579339 0.4494033162 0.4413745912 0.43311273918
          0.4244669281 0.41445724488 0.43331357855 0.42467669865 0.41472586904 0.40006368574
          0.30020996963 0.41535706806 0.40109776478 0.31080519019 0.17773278134 0.13650521523
          0.33351027507 0.18716627286 0.13956150098 0.12352612319 0.11775696297
        </DataArray>
        <DataArray type="Float64" Name="theta_500" format="ascii" RangeMin="0.11755154109" RangeMax="0.49598942104">
          0.49598942104 0.48833478777 0.48065525184 0.47294448799 0.46518854287 0.48065451566
          0.47294366751 0.46518781018 0.45736932969 0.44946962016 0.46518601329 0.45736797937
          0.44946739757 0.44144156515 0.433181146 0.4494648243 0.44143834245 0.43317794202
          0.4245352213 0.41454460544 0.43317342566 0.42453049042 0.41453808145 0.39964385689
          0.29707675893 0.48833591407 0.48065667119 0.47294520281 0.46519002482 0.45737116987
          0.47294503632 0.46518927469 0.45737072721 0.44947105596 0.44144453346 0.4573693515
          0.44946982962 0.44144326155 0.43318283975 0.42454074055 0.44144049402 0.43318024752
          0.4245375651 0.41454782778 0.39966395791 0.42453285353 0.41454185294 0.39964679442
          0.29713203747 0.17284786084 0.48065840412 0.47294771411 0.46519183479 0.45737330072
          0.44947372561 0.4651919068 0.4573732563 0.44947375339 0.44144729011 0.43318737304
          0.44947346984 0.44144692933 0.43318713489 0.42454460297 0.41455672091 0.43318538599
          0.4245431489 0.41455451144 0.39968075693 0.29734622669 0.41455124351 0.39967243893
          0.29729031481 0.17290583889 0.1350374748 0.47294990175 0.46519414963 0.45737564656
          0.44947605626 0.4414496641 0.45737648558 0.44947693401 0.44145054924 0.43319079267
          0.42454845756 0.44145234884 0.43319263691 0.42455038803 0.41456412882 0.39970364086
          0.42455306172 0.41456756443 0.39971187202 0.2975616776 0.17300363605 0.39972322437
          0.29763953484 0.17303166158 0.13507252039 0.12212696801 0.46519575923 0.45737722771
          0.44947768534 0.44145132056 0.43319158761 0.44947933132 0.44145304038 0.43319334353
          0.42455109862 0.4145650785 0.43319760719 0.42455543688 0.41457088486 0.39971956545
          0.29761470472 0.41458270675 0.39974876788 0.29781561494 0.17309506901 0.13509012225
          0.29824776285 0.17325012845 0.13513336731 0.1221507781 0.11755154109
        </DataArray>
        <DataArray type="Float64" Name="theta_1000" format="ascii" RangeMin="0.11754714826" RangeMax="0.49599689025">
          0.49599689025 0.48834256716 0.48066278717 0.47295203737 0.46519632355 0.4806627874
          0.47295222405 0.46519616648 0.4573779142 0.44947820019 0.4651963186 0.45737780026
          0.44947824877 0.44145192715 0.43319218513 0.44947824606 0.44145190839 0.43319218148
          0.4245499125 0.41456351873 0.43319216536 0.42454991002 0.41456349379 0.39970212818
          0.29749441758 0.48834239069 0.48066287289 0.47295206437 0.46519623288 0.45737788135
          0.47295200375 0.46519636933 0.45737778456 0.44947826802 0.44145192104 0.45737779986
          0.44947826572 0.44145190752 0.43319221239 0.42454992319 0.4414519116 0.43319219041
          0.4245499197 0.41456352789 0.39970219446 0.42454990604 0.41456350961 0.39970214964
          0.29749456389 0.1729794677 0.48066271634 0.47295228305 0.46519622182 0.4573778695
          0.44947825978 0.46519634153 0.45737780586 0.44947828572 0.44145191372 0.43319221878
          0.44947826862 0.44145193675 0.4331922052 0.42454994363 0.41456355205 0.43319220601
          0.42454993493 0.41456354724 0.39970224406 0.29749518883 0.41456353715 0.39970221735
          0.2974950249 0.1729796341 0.13505802254 0.472952037 0.46519634502 0.45737781908
          0.44947827922 0.44145193848 0.45737786084 0.44947812725 0.44145216613 0.43319207789
          0.42454998454 0.44145194596 0.43319222633 0.42454995725 0.41456357494 0.39970230973
          0.42454996488 0.41456358447 0.39970233251 0.2974958134 0.17297991851 0.39970236516
          0.29749602773 0.1729799965 0.13505812338 0.12212135004 0.46519635045 0.45737782073
          0.44947828885 0.44145193965 0.43319222417 0.44947828875 0.44145194822 0.43319222828
          0.42454995949 0.4145635778 0.43319223976 0.42454997393 0.41456359316 0.3997023568
          0.29749597094 0.41456362872 0.39970244121 0.29749654488 0.17298018327 0.13505817521
          0.29749777311 0.17298062343 0.13505829834 0.12212141852 0.11754714826
        </DataArray>
        <DataArray type="Float64" Name="theta_2000" format="ascii" RangeMin="0.11754713562" RangeMax="0.4959967159">
          0.4959967159 0.48834288046 0.48066238112 0.47295297733 0.46519575988 0.48066266959
          0.47295247534 0.46519624196 0.4573778079 0.449478219 0.46519625078 0.45737800932
          0.44947838074 0.44145155532 0.43319243452 0.44947767428 0.44145274516 0.43319218861
          0.4245498885 0.41456348706 0.43319231545 0.42454971555 0.41456380382 0.39970230468
          0.2974955383 0.48834224028 0.48066350766 0.47295116998 0.46519689331 0.45737772348
          0.47295209708 0.46519620265 0.4573778144 0.449478497 0.44145183771 0.45737813912
          0.44947774926 0.44145216244 0.43319225042 0.42454993417 0.44145177005 0.43319246505
          0.42454991838 0.41456354732 0.39970230226 0.42454983771 0.41456373664 0.39970228266
          0.2974955959 0.17297984922 0.48066291553 0.47295167946 0.46519686466 0.45737761927
          0.44947833475 0.465196152 0.45737812864 0.44947827613 0.4414517946 0.43319227937
          0.44947809578 0.44145222386 0.43319219294 0.42454997722 0.41456349378 0.43319210429
          0.42455025046 0.41456332055 0.39970260144 0.29749540117 0.41456357869 0.39970229927
          0.29749561932 0.17297984911 0.13505808233 0.47295209735 0.46519627436 0.45737787327
          0.44947819372 0.44145201025 0.45737772609 0.44947852198 0.44145169044 0.43319243901
          0.4245498579 0.44145194618 0.43319233925 0.42454967325 0.41456381616 0.39970222827
          0.42454995877 0.41456355019 0.39970234189 0.2974956024 0.17297984886 0.39970230338
          0.29749562101 0.17297984905 0.13505808233 0.12212133402 0.46519636148 0.45737791407
          0.44947797317 0.44145236455 0.43319201751 0.44947812773 0.44145223102 0.43319208176
          0.42454992692 0.41456361602 0.43319221422 0.42454998952 0.41456352824 0.39970235059
          0.29749559527 0.41456364484 0.39970241146 0.29749543939 0.17297985079 0.13505808233
          0.29749561943 0.172979849 0.13505808233 0.12212133402 0.11754713562
        </DataArray>
        <DataArray type="Float64" Name="theta_5000" format="ascii" RangeMin="0.11754713562" RangeMax="0.49599700474">
          0.49599700474 0.48834240585 0.48066291099 0.47295204138 0.46519635158 0.48066290957
          0.47295204284 0.46519635106 0.45737782497 0.44947828535 0.46519635107 0.45737782494
          0.44947828536 0.44145194468 0.43319222471 0.44947828535 0.44145194471 0.43319222469
          0.42454995575 0.41456357297 0.43319222469 0.42454995574 0.41456357297 0.399702305
          0.29749561943 0.48834240634 0.48066290955 0.47295204289 0.46519635099 0.45737782499
          0.47295204284 0.46519635107 0.45737782495 0.44947828536 0.4414519447 0.45737782496
          0.44947828535 0.44145194468 0.43319222471 0.42454995573 0.4414519447 0.4331922247
          0.42454995573 0.41456357297 0.39970230501 0.42454995574 0.41456357297 0.39970230501
          0.29749561943 0.17297984901 0.48066290956 0.47295204285 0.46519635105 0.45737782499
          0.44947828533 0.46519635107 0.45737782495 0.44947828535 0.4414519447 0.4331922247
          0.44947828536 0.44145194469 0.43319222471 0.42454995573 0.41456357298 0.4331922247
          0.42454995573 0.41456357298 0.399702305 0.29749561943 0.41456357297 0.39970230501
          0.29749561943 0.17297984901 0.13505808233 0.47295204285 0.46519635105 0.45737782498
          0.44947828534 0.44145194471 0.45737782496 0.44947828535 0.44145194471 0.43319222468
          0.42454995574 0.4414519447 0.43319222468 0.42454995576 0.41456357297 0.399702305
          0.42454995573 0.41456357298 0.39970230501 0.29749561943 0.17297984901 0.399702305
          0.29749561943 0.17297984901 0.13505808233 0.12212133402 0.46519635094 0.45737782518
          0.44947828526 0.4414519447 0.43319222469 0.44947828536 0.44145194469 0.43319222469
          0.42454995575 0.41456357297 0.43319222468 0.42454995576 0.41456357296 0.39970230501
          0.29749561943 0.41456357297 0.39970230501 0.29749561943 0.17297984901 0.13505808233
          0.29749561943 0.17297984901 0.13505808233 0.12212133402 0.11754713562
        </DataArray>
        <DataArray type="Float64" Name="theta_10000" format="ascii" RangeMin="0.11754713562" RangeMax="0.49599700271">
          0.49599700271 0.48834248472 0.48066267904 0.47295228091 0.46519626716 0.48066290924
          0.47295204352 0.46519635067 0.45737782491 0.44947828544 0.46519635124 0.45737782478
          0.44947828538 0.44145194455 0.43319222483 0.44947828535 0.44145194471 0.43319222469
          0.42454995574 0.41456357297 0.43319222418 0.42454995676 0.41456357246 0.39970230501
          0.29749561943 0.48834240633 0.48066290954 0.47295204379 0.46519634925 0.45737782585
          0.47295204284 0.46519635103 0.45737782533 0.44947828472 0.44145194501 0.45737782496
          0.44947828536 0.44145194469 0.4331922247 0.42454995574 0.4414519447 0.43319222469
          0.42454995574 0.41456357297 0.39970230501 0.42454995574 0.41456357297 0.399702305
          0.29749561943 0.17297984901 0.48066290958 0.47295204289 0.4651963481 0.45737783073
          0.44947828249 0.46519635107 0.45737782495 0.44947828536 0.44145194469 0.4331922247
          0.44947828536 0.44145194469 0.4331922247 0.42454995573 0.41456357297 0.43319222469
          0.42454995532 0.41456357381 0.39970230456 0.29749561945 0.41456357297 0.39970230501
          0.29749561943 0.17297984901 0.13505808233 0.47295204283 0.46519635147 0.45737782419
          0.44947828574 0.44145194469 0.45737782495 0.44947828535 0.44145194471 0.4331922247
          0.42454995573 0.44145194445 0.43319222832 0.42454994916 0.41456357624 0.39970230494
          0.42454995573 0.41456357298 0.39970230501 0.29749561943 0.17297984901 0.39970230501
          0.29749561943 0.17297984901 0.13505808233 0.12212133402 0.4651963591 0.45737781038
          0.44947829222 0.44145194436 0.43319222471 0.44947828401 0.44145194665 0.43319222409
          0.42454995573 0.41456357298 0.43319222293 0.4245499586 0.41456357186 0.39970230502
          0.29749561943 0.41456357297 0.39970230501 0.29749561943 0.17297984901 0.13505808233
          0.29749561943 0.17297984901 0.13505808233 0.12212133402 0.11754713562
        </DataArray>
      </PointData>
      <CellData>
      </CellData>
      <Points>
        <DataArray type="Float32" Name="Points" NumberOfComponents="3" format="ascii" RangeMin="0" RangeMax="565.91165388">
          0 0 0 0 0 1
          0 0 2 0 0 3
          0 0 4 0 100 2
          0 100 3 0 100 4
          0 100 5 0 100 6
          0 200 4 0 200 5
          0 200 6 0 200 7
          0 200 8 0 300 6
          0 300 7 0 300 8
          0 300 9 0 300 10
          0 400 8 0 400 9
          0 400 10 0 400 11
          0 400 12 100 0 1
          100 0 2 100 0 3
          100 0 4 100 0 5
          100 100 3 100 100 4
          100 100 5 100 100 6
          100 100 7 100 200 5
          100 200 6 100 200 7
          100 200 8 100 200 9
          100 300 7 100 300 8
          100 300 9 100 300 10
          100 300 11 100 400 9
          100 400 10 100 400 11
          100 400 12 100 400 13
          200 0 2 200 0 3
          200 0 4 200 0 5
          200 0 6 200 100 4
          200 100 5 200 100 6
          200 100 7 200 100 8
          200 200 6 200 200 7
          200 200 8 200 200 9
          200 200 10 200 300 8
          200 300 9 200 300 10
          200 300 11 200 300 12
          200 400 10 200 400 11
          200 400 12 200 400 13
          200 400 14 300 0 3
          300 0 4 300 0 5
          300 0 6 300 0 7
          300 100 5 300 100 6
          300 100 7 300 100 8
          300 100 9 300 200 7
          300 200 8 300 200 9
          300 200 10 300 200 11
          300 300 9 300 300 10
          300 300 11 300 300 12
          300 300 13 300 400 11
          300 400 12 300 400 13
          300 400 14 300 400 15
          400 0 4 400 0 5
          400 0 6 400 0 7
          400 0 8 400 100 6
          400 100 7 400 100 8
          400 100 9 400 100 10
          400 200 8 400 200 9
          400 200 10 400 200 11
          400 200 12 400 300 10
          400 300 11 400 300 12
          400 300 13 400 300 14
          400 400 12 400 400 13
          400 400 14 400 400 15
          400 400 16
        </DataArray>
      </Points>
      <Cells>
        <DataArray type="Int64" Name="connectivity" format="ascii" RangeMin="0" RangeMax="124">
          5 1 0 25 26 25
          5 30 10 6 5 30
          39 34 38 59 5 2
          1 25 10 11 8 31
          33 29 32 53 9 32
          12 33 7 4 6 27
          54 56 33 57 5 3
          2 26 28 30 7 31
          51 50 30 55 9 4
          8 29 4 27 7 28
          36 56 35 60 8 31
          11 32 6 4 3 27
          5 6 3 26 8 4
          7 28 38 37 17 40
          29 31 8 32 27 26
          6 30 37 36 16 40
          2 25 5 26 35 31
          30 55 41 20 21 45
          15 11 10 35 4 28
          8 29 7 30 10 31
          3 26 6 27 15 16
          13 36 11 9 8 32
          12 35 15 36 12 9
          11 32 14 9 13 34
          17 14 16 37 29 32
          9 33 33 35 12 36
          13 9 12 33 12 32
          11 35 10 8 7 31
          29 33 9 34 8 28
          7 31 9 29 8 32
          30 26 25 50 13 36
          16 37 11 31 10 35
          28 27 7 30 29 28
          8 31 10 7 6 30
          9 33 13 34 7 27
          6 30 34 33 13 36
          40 36 35 60 6 26
          5 30 15 12 11 35
          13 33 12 36 14 34
          13 37 16 14 13 37
          104 108 84 109 34 38
          14 39 31 30 10 35
          53 55 32 56 76 75
          55 80 52 51 31 55
          30 27 26 50 33 32
          12 35 32 31 11 35
          14 38 18 39 34 37
          14 38 36 35 15 40
          15 13 12 36 19 14
          18 39 18 38 17 41
          18 14 17 38 34 36
          13 37 14 37 17 38
          19 39 18 42 34 29
          33 54 29 52 32 53
          65 61 60 85 31 29
          28 52 16 36 15 40
          30 28 27 51 17 37
          16 40 38 40 17 41
          20 16 15 40 39 38
          18 41 39 41 18 42
          20 17 16 40 39 42
          19 43 27 50 30 51
          41 40 20 45 20 21
          18 41 43 42 22 45
          30 31 28 51 20 18
          17 41 17 40 20 41
          21 19 18 42 18 41
          21 42 22 19 21 42
          42 21 22 45 23 19
          22 43 19 42 22 43
          32 29 31 52 42 41
          21 45 35 36 33 56
          39 43 19 44 24 19
          23 44 19 43 23 44
          80 76 75 100 63 62
          42 65 62 61 41 65
          60 56 55 80 44 43
          23 46 43 22 23 46
          45 22 43 46 63 65
          42 66 101 100 80 105
          44 23 24 47 46 23
          44 47 67 66 46 70
          44 47 24 48 61 81
          60 85 86 85 65 90
          44 48 24 49 29 53
          33 54 36 34 33 57
          28 51 31 52 43 39
          42 63 54 58 34 59
          39 59 38 62 34 54
          33 57 37 57 36 60
          59 79 58 82 38 34
          37 58 33 56 36 57
          40 41 38 61 35 33
          32 56 54 53 33 56
          33 53 32 56 55 51
          50 75 34 57 37 58
          32 55 35 56 53 52
          32 55 54 57 34 58
          85 81 80 105 35 32
          31 55 34 58 38 59
          32 52 31 55 37 34
          36 57 59 63 39 64
          31 51 30 55 85 86
          83 106 58 60 37 61
          59 62 39 63 42 39
          41 62 40 37 36 60
          55 52 51 75 38 58
          37 61 61 60 40 65
          56 55 35 60 53 76
          56 77 92 71 72 95
          41 39 38 62 37 60
          40 61 58 57 37 60
          57 56 36 60 59 58
          38 61 38 61 41 62
          40 38 37 61 44 39
          43 64 43 63 42 66
          39 63 43 64 59 54
          58 79 59 61 38 62
          39 62 42 63 42 62
          41 65 45 46 43 66
          64 66 43 67 58 54