<?xml version="1.0"?>
<VTKFile type="UnstructuredGrid" version="0.1" byte_order="LittleEndian" header_type="UInt32" compressor="vtkZLibDataCompressor">
  <UnstructuredGrid>
    <Piece NumberOfPoints="125" NumberOfCells="381">
      <PointData>
        <DataArray type="Float64" Name="z0" format="ascii" RangeMin="0" RangeMax="16">
          0 1 2 3 4 2
          3 4 5 6 4 5
          6 7 8 6 7 8
          9 10 8 9 10 11
          12 1 2 3 4 5
          3 4 5 6 7 5
          6 7 8 9 7 8
          9 10 11 9 10 11
          12 13 2 3 4 5
          6 4 5 6 7 8
          6 7 8 9 10 8
          9 10 11 12 10 11
          12 13 14 3 4 5
          6 7 5 6 7 8
          9 7 8 9 10 11
          9 10 11 12 13 11
          12 13 14 15 4 5
          6 7 8 6 7 8
          9 10 8 9 10 11
          12 10 11 12 13 14
          12 13 14 15 16
        </DataArray>
        <DataArray type="Float64" Name="ks" format="ascii" RangeMin="20" RangeMax="20">
          20 20 20 20 20 20
          20 20 20 20 20 20
          20 20 20 20 20 20
          20 20 20 20 20 20
          20 20 20 20 20 20
          20 20 20 20 20 20
          20 20 20 20 20 20
          20 20 20 20 20 20
          20 20 20 20 20 20
          20 20 20 20 20 20
          20 20 20 20 20 20
          20 20 20 20 20 20
          20 20 20 20 20 20
          20 20 20 20 20 20
          20 20 20 20 20 20
          20 20 20 20 20 20
          20 20 20 20 20 20
          20 20 20 20 20 20
          20 20 20 20 20 20
          20 20 20 20 20 20
          20 20 20 20 20
        </DataArray>
      </PointData>
      <CellData>
      </CellData>
      <Points>
        <DataArray type="Float32" Name="Points" NumberOfComponents="3" format="ascii" RangeMin="0" RangeMax="565.91165388">
          0 0 0 0 0 1
          0 0 2 0 0 3
          0 0 4 0 100 2
          0 100 3 0 100 4
          0 100 5 0 100 6
          0 200 4 0 200 5
          0 200 6 0 200 7
          0 200 8 0 300 6
          0 300 7 0 300 8
          0 300 9 0 300 10
          0 400 8 0 400 9
          0 400 10 0 400 11
          0 400 12 100 0 1
          100 0 2 100 0 3
          100 0 4 100 0 5
          100 100 3 100 100 4
          100 100 5 100 100 6
          100 100 7 100 200 5
          100 200 6 100 200 7
          100 200 8 100 200 9
          100 300 7 100 300 8
          100 300 9 100 300 10
          100 300 11 100 400 9
          100 400 10 100 400 11
          100 400 12 100 400 13
          200 0 2 200 0 3
          200 0 4 200 0 5
          200 0 6 200 100 4
          200 100 5 200 100 6
          200 100 7 200 100 8
          200 200 6 200 200 7
          200 200 8 200 200 9
          200 200 10 200 300 8
          200 300 9 200 300 10
          200 300 11 200 300 12
          200 400 10 200 400 11
          200 400 12 200 400 13
          200 400 14 300 0 3
          300 0 4 300 0 5
          300 0 6 300 0 7
          300 100 5 300 100 6
          300 100 7 300 100 8
          300 100 9 300 200 7
          300 200 8 300 200 9
          300 200 10 300 200 11
          300 300 9 300 300 10
          300 300 11 300 300 12
          300 300 13 300 400 11
          300 400 12 300 400 13
          300 400 14 300 400 15
          400 0 4 400 0 5
          400 0 6 400 0 7
          400 0 8 400 100 6
          400 100 7 400 100 8
          400 100 9 400 100 10
          400 200 8 400 200 9
          400 200 10 400 200 11
          400 200 12 400 300 10
          400 300 11 400 300 12
          400 300 13 400 300 14
          400 400 12 400 400 13
          400 400 14 400 400 15
          400 400 16
        </DataArray>
      </Points>
      <Cells>
        <DataArray type="Int64" Name="connectivity" format="ascii" RangeMin="0" RangeMax="124">
          5 1 0 25 26 25
          5 30 10 6 5 30
          39 34 38 59 5 2
          1 25 10 11 8 31
          33 29 32 53 9 32
          12 33 7 4 6 27
          54 56 33 57 5 3
          2 26 28 30 7 31
          51 50 30 55 9 4
          8 29 4 27 7 28
          36 56 35 60 8 31
          11 32 6 4 3 27
          5 6 3 26 8 4
          7 28 38 37 17 40
          29 31 8 32 27 26
          6 30 37 36 16 40
          2 25 5 26 35 31
          30 55 41 20 21 45
          15 11 10 35 4 28
          8 29 7 30 10 31
          3 26 6 27 15 16
          13 36 11 9 8 32
          12 35 15 36 12 9
          11 32 14 9 13 34
          17 14 16 37 29 32
          9 33 33 35 12 36
          13 9 12 33 12 32
          11 35 10 8 7 31
          29 33 9 34 8 28
          7 31 9 29 8 32
          30 26 25 50 13 36
          16 37 11 31 10 35
          28 27 7 30 29 28
          8 31 10 7 6 30
          9 33 13 34 7 27
          6 30 34 33 13 36
          40 36 35 60 6 26
          5 30 15 12 11 35
          13 33 12 36 14 34
          13 37 16 14 13 37
          104 108 84 109 34 38
          14 39 31 30 10 35
          53 55 32 56 76 75
          55 80 52 51 31 55
          30 27 26 50 33 32
          12 35 32 31 11 35
          14 38 18 39 34 37
          14 38 36 35 15 40
          15 13 12 36 19 14
          18 39 18 38 17 41
          18 14 17 38 34 36
          13 37 14 37 17 38
          19 39 18 42 34 29
          33 54 29 52 32 53
          65 61 60 85 31 29
          28 52 16 36 15 40
          30 28 27 51 17 37
          16 40 38 40 17 41
          20 16 15 40 39 38
          18 41 39 41 18 42
          20 17 16 40 39 42
          19 43 27 50 30 51
          41 40 20 45 20 21
          18 41 43 42 22 45
          30 31 28 51 20 18
          17 41 17 40 20 41
          21 19 18 42 18 41
          21 42 22 19 21 42
          42 21 22 45 23 19
          22 43 19 42 22 43
          32 29 31 52 42 41
          21 45 35 36 33 56
          39 43 19 44 24 19
          23 44 19 43 23 44
          80 76 75 100 63 62
          42 65 62 61 41 65
          60 56 55 80 44 43
          23 46 43 22 23 46
          45 22 43 46 63 65
          42 66 101 100 80 105
          44 23 24 47 46 23
          44 47 67 66 46 70
          44 47 24 48 61 81
          60 85 86 85 65 90
          44 48 24 49 29 53
          33 54 36 34 33 57
          28 51 31 52 43 39
          42 63 54 58 34 59
          39 59 38 62 34 54
          33 57 37 57 36 60
          59 79 58 82 38 34
          37 58 33 56 36 57
          40 41 38 61 35 33
          32 56 54 53 33 56
          33 53 32 56 55 51
          50 75 34 57 37 58
          32 55 35 56 53 52
          32 55 54 57 34 58
          85 81 80 105 35 32
          31 55 34 58 38 59
          32 52 31 55 37 34
          36 57 59 63 39 64
          31 51 30 55 85 86
          83 106 58 60 37 61
          59 62 39 63 42 39
          41 62 40 37 36 60
          55 52 51 75 38 58
          37 61 61 60 40 65
          56 55 35 60 53 76
          56 77 92 71 72 95
          41 39 38 62 37 60
          40 61 58 57 37 60
          57 56 36 60 59 58
          38 61 38 61 41 62
          40 38 37 61 44 39
          43 64 43 63 42 66
          39 63 43 64 59 54
          58 79 59 61 38 62
          39 62 42 63 42 62
          41 65 45 46 43 66
          64 66 43 67 58 54
          57 78 57 80 60 81
          41 61 40 65 55 53
          52 76 64 67 44 68
          77 76 56 80 45 41
          40 65 44 64 43 67
          64 63 43 66 56 54
          53 77 45 42 41 65
          84 104 83 107 67 46
          47 70 46 44 43 67
          45 43 42 66 42 65
          45 66 57 54 56 77
          43 66 46 67 47 44
          46 67 64 68 44 69
          54 78 58 79 68 67
          47 70 48 44 47 68
          44 67 47 68 66 45
          46 70 54 77 57 78
          49 44 48 69 44 68
          48 69 66 65 45 70
          67 87 66 90 79 83
          59 84 89 92 69 93
          91 90 70 95 69 68
          48 71 68 47 48 71
          70 47 68 71 69 89
          68 92 60 61 58 81
          69 48 49 72 71 48
          69 72 69 72 49 73
          69 73 49 74 64 59
          63 84 52 75 55 76
          55 56 53 76 78 77
          57 80 79 81 58 82
          78 80 57 81 62 82
          61 85 61 59 58 82
          59 83 63 84 56 76
          55 80 58 81 61 82
          63 59 62 83 60 58
          57 81 79 78 58 81
          58 78 57 81 65 66
          63 86 59 82 62 83
          60 57 56 80 79 82
          59 83 57 77 56 80
          62 59 61 82 84 88
          64 89 83 85 62 86
          84 87 64 88 67 64
          66 87 65 62 61 85
          80 77 76 100 63 83
          62 86 84 83 63 86
          81 80 60 85 64 84
          63 87 66 64 63 87
          62 85 65 86 83 82
          62 85 82 81 61 85
          63 86 66 87 69 64
          68 89 66 86 65 90
          65 63 62 86 79 102
          82 103 104 106 83 107
          84 86 63 87 68 64
          67 88 64 87 67 88
          70 67 66 90 87 86
          66 90 80 78 77 101
          64 88 68 89 89 91
          68 92 112 110 90 115
          70 71 68 91 77 100
          80 101 70 66 65 90
          89 88 68 91 88 87
          67 90 90 86 85 110
          88 90 67 91 68 88
          67 91 83 79 82 103
          78 101 81 102 82 79
          81 102 71 69 68 92
          70 68 67 91 67 90
          70 91 94 93 73 96
          81 79 78 102 68 91
          71 92 119 118 98 121
          92 91 71 95 72 69
          71 92 89 93 69 94
          93 92 72 95 73 69
          72 93 69 92 72 93
          74 69 73 94 69 93
          73 94 91 70 71 95
          93 72 73 96 95 72
          93 96 94 73 74 97
          96 73 94 97 94 97
          74 98 94 98 74 99
          86 106 85 110 79 103
          83 104 89 84 88 109
          102 101 81 105 80 81
          78 101 84 79 83 104
          103 102 82 105 82 105
          85 106 103 105 82 106
          87 107 86 110 86 84
          83 107 84 108 88 109
          81 101 80 105 83 106
          86 107 91 89 88 112
          88 84 87 108 85 83
          82 106 104 103 83 106
          83 103 82 106 90 91
          88 112 84 107 87 108
          85 82 81 105 104 107
          84 108 82 102 81 105
          87 84 86 107 114 113
          93 116 108 110 87 112
          109 113 89 114 93 89
          92 113 90 87 86 110
          88 108 87 112 109 108
          88 112 94 89 93 114
          106 105 85 110 109 112
          89 113 87 110 90 112
          108 107 87 110 107 106
          86 110 118 117 97 120
          95 91 90 115 92 89
          91 112 90 88 87 112
          89 112 92 113 89 109
          88 112 89 113 93 114
          97 117 96 120 92 112
          91 115 91 112 90 115
          113 112 92 115 93 113
          92 116 116 95 96 120
          94 114 93 117 117 116
          96 120 95 92 91 115
          116 115 95 120 113 115
          92 116 95 96 93 116
          95 93 92 116 92 115
          95 116 114 116 93 117
          97 94 96 117 96 94
          93 117 93 116 96 117
          114 117 94 118 98 94
          97 118 94 117 97 118
          99 94 98 119 94 118
          98 119 114 118 94 119
          98 118 97 121 118 120
          97 121 99 119 98 122
          119 121 98 122 122 99
          119 123 123 99 119 124
        </DataArray>
        <DataArray type="Int64" Name="offsets" format="ascii" RangeMin="4" RangeMax="1524">
          4 8 12 16 20 24
          28 32 36 40 44 48
          52 56 60 64 68 72
          76 80 84 88 92 96
          100 104 108 112 116 120
          124 128 132 136 140 144
          148 152 156 160 164 168
          172 176 180 184 188 192
          196 200 204 208 212 216
          220 224 228 232 236 240
          244 248 252 256 260 264
          268 272 276 280 284 288
          292 296 300 304 308 312
          316 320 324 328 332 336
          340 344 348 352 356 360
          364 368 372 376 380 384
          388 392 396 400 404 408
          412 416 420 424 428 432
          436 440 444 448 452 456
          460 464 468 472 476 480
          484 488 492 496 500 504
          508 512 516 520 524 528
          532 536 540 544 548 552
          556 560 564 568 572 576
          580 584 588 592 596 600
          604 608 612 616 620 624
          628 632 636 640 644 648
          652 656 660 664 668 672
          676 680 684 688 692 696
          700 704 708 712 716 720
          724 728 732 736 740 744
          748 752 756 760 764 768
          772 776 780 784 788 792
          796 800 804 808 812 816
          820 824 828 832 836 840
          844 848 852 856 860 864
          868 872 876 880 884 888
          892 896 900 904 908 912
          916 920 924 928 932 936
          940 944 948 952 956 960
          964 968 972 976 980 984
          988 992 996 1000 1004 1008
          1012 1016 1020 1024 1028 1032
          1036 1040 1044 1048 1052 1056
          1060 1064 1068 1072 1076 1080
          1084 1088 1092 1096 1100 1104
          1108 1112 1116 1120 1124 1128
          1132 1136 1140 1144 1148 1152
          1156 1160 1164 1168 1172 1176
          1180 1184 1188 1192 1196 1200
          1204 1208 1212 1216 1220 1224
          1228 1232 1236 1240 1244 1248
          1252 1256 1260 1264 1268 1272
          1276 1280 1284 1288 1292 1296
          1300 1304 1308 1312 1316 1320
          1324 1328 1332 1336 1340 1344
          1348 1352 1356 1360 1364 1368
          1372 1376 1380 1384 1388 1392
          1396 1400 1404 1408 1412 1416
          1420 1424 1428 1432 1436 1440
          1444 1448 1452 1456 1460 1464
          1468 1472 1476 1480 1484 1488
          1492 1496 1500 1504 1508 1512
          1516 1520 1524
        </DataArray>
        <DataArray type="UInt8" Name="types" format="ascii" RangeMin="10" RangeMax="10">
          10 10 10 10 10 10
          10 10 10 10 10 10
          10 10 10 10 10 10
          10 10 10 10 10 10
          10 10 10 10 10 10
          10 10 10 10 10 10
          10 10 10 10 10 10
          10 10 10 10 10 10
          10 10 10 10 10 10
          10 10 10 10 10 10
          10 10 10 10 10 10
          10 10 10 10 10 10
          10 10 10 10 10 10
          10 10 10 10 10 10
          10 10 10 10 10 10
          10 10 10 10 10 10
          10 10 10 10 10 10
          10 10 10 10 10 10
          10 10 10 10 10 10
          10 10 10 10 10 10
          10 10 10 10 10 10
          10 10 10 10 10 10
          10 10 10 10 10 10
          10 10 10 10 10 10
          10 10 10 10 10 10
          10 10 10 10 10 10
          10 10 10 10 10 10
          10 10 10 10 10 10
          10 10 10 10 10 10
          10 10 10 10 10 10
          10 10 10 10 10 10
          10 10 10 10 10 10
          10 10 10 10 10 10
          10 10 10 10 10 10
          10 10 10 10 10 10
          10 10 10 10 10 10
          10 10 10 10 10 10
          10 10 10 10 10 10
          10 10 10 10 10 10
          10 10 10 10 10 10
          10 10 10 10 10 10
          10 10 10 10 10 10
          10 10 10 10 10 10
          10 10 10 10 10 10
          10 10 10 10 10 10
          10 10 10 10 10 10
          10 10 10 10 10 10
          10 10 10 10 10 10
          10 10 10 10 10 10
          10 10 10 10 10 10
          10 10 10 10 10 10
          10 10 10 10 10 10
          10 10 10 10 10 10
          10 10 10 10 10 10
          10 10 10 10 10 10
          10 10 10 10 10 10
          10 10 10 10 10 10
          10 10 10 10 10 10
          10 10 10 10 10 10
          10 10 10 10 10 10
          10 10 10 10 10 10
          10 10 10 10 10 10
          10 10 10 10 10 10
          10 10 10
        </DataArray>
      </Cells>
    </Piece>
  </UnstructuredGrid>
</VTKFile>
