<?xml version="1.0"?>
<VTKFile type="PolyData" version="0.1" byte_order="LittleEndian" header_type="UInt32" compressor="vtkZLibDataCompressor">
  <PolyData>
    <Piece NumberOfPoints="300" NumberOfVerts="300" NumberOfLines="0" NumberOfStrips="0" NumberOfPolys="0">
      <PointData>
        <DataArray type="Float64" Name="z0" format="ascii" RangeMin="0" RangeMax="33">
          0 3 6 2 5 8
          4 7 10 6 9 12
          8 11 14 10 13 16
          12 15 18 14 17 20
          16 19 22 18 21 24
          1 4 7 3 6 9
          5 8 11 7 10 13
          9 12 15 11 14 17
          13 16 19 15 18 21
          17 20 23 19 22 25
          2 5 8 4 7 10
          6 9 12 8 11 14
          10 13 16 12 15 18
          14 17 20 16 19 22
          18 21 24 20 23 26
          3 6 9 5 8 11
          7 10 13 9 12 15
          11 14 17 13 16 19
          15 18 21 17 20 23
          19 22 25 21 24 27
          4 7 10 6 9 12
          8 11 14 10 13 16
          12 15 18 14 17 20
          16 19 22 18 21 24
          20 23 26 22 25 28
          5 8 11 7 10 13
          9 12 15 11 14 17
          13 16 19 15 18 21
          17 20 23 19 22 25
          21 24 27 23 26 29
          6 9 12 8 11 14
          10 13 16 12 15 18
          14 17 20 16 19 22
          18 21 24 20 23 26
          22 25 28 24 27 30
          7 10 13 9 12 15
          11 14 17 13 16 19
          15 18 21 17 20 23
          19 22 25 21 24 27
          23 26 29 25 28 31
          8 11 14 10 13 16
          12 15 18 14 17 20
          16 19 22 18 21 24
          20 23 26 22 25 28
          24 27 30 26 29 32
          9 12 15 11 14 17
          13 16 19 15 18 21
          17 20 23 19 22 25
          21 24 27 23 26 29
          25 28 31 27 30 33
        </DataArray>
        <DataArray type="Float64" Name="ks" format="ascii" RangeMin="10" RangeMax="10">
          10 10 10 10 10 10
          10 10 10 10 10 10
          10 10 10 10 10 10
          10 10 10 10 10 10
          10 10 10 10 10 10
          10 10 10 10 10 10
          10 10 10 10 10 10
          10 10 10 10 10 10
          10 10 10 10 10 10
          10 10 10 10 10 10
          10 10 10 10 10 10
          10 10 10 10 10 10
          10 10 10 10 10 10
          10 10 10 10 10 10
          10 10 10 10 10 10
          10 10 10 10 10 10
          10 10 10 10 10 10
          10 10 10 10 10 10
          10 10 10 10 10 10
          10 10 10 10 10 10
          10 10 10 10 10 10
          10 10 10 10 10 10
          10 10 10 10 10 10
          10 10 10 10 10 10
          10 10 10 10 10 10
          10 10 10 10 10 10
          10 10 10 10 10 10
          10 10 10 10 10 10
          10 10 10 10 10 10
          10 10 10 10 10 10
          10 10 10 10 10 10
          10 10 10 10 10 10
          10 10 10 10 10 10
          10 10 10 10 10 10
          10 10 10 10 10 10
          10 10 10 10 10 10
          10 10 10 10 10 10
          10 10 10 10 10 10
          10 10 10 10 10 10
          10 10 10 10 10 10
          10 10 10 10 10 10
          10 10 10 10 10 10
          10 10 10 10 10 10
          10 10 10 10 10 10
          10 10 10 10 10 10
          10 10 10 10 10 10
          10 10 10 10 10 10
          10 10 10 10 10 10
          10 10 10 10 10 10
          10 10 10 10 10 10
        </DataArray>
        <DataArray type="Float64" Name="theta_1" format="ascii" RangeMin="0.069095774132" RangeMax="0.39617371732">
          0.39382278201 0.081364308956 0.069095774132 0.39338926978 0.082846475344 0.070745590106
          0.39354665254 0.08435295735 0.072436232666 0.39369142075 0.08585893335 0.074127728932
          0.39383521709 0.087364870765 0.075820356099 0.39397877511 0.088870881022 0.077513425321
          0.39414344971 0.090378825535 0.079183887955 0.39433846349 0.091887902565 0.080822119511
          0.39453653835 0.093396920796 0.08243362951 0.39408197601 0.094878076741 0.083995072068
          0.39368358875 0.082858585819 0.070766029856 0.39325619248 0.084341133431 0.072415545793
          0.39340604545 0.085847181854 0.07410582893 0.39354327908 0.087352842874 0.075796764294
          0.39367967758 0.088858486575 0.077488586819 0.39383324412 0.090365753675 0.079162012315
          0.39401858794 0.091874234546 0.080802998888 0.3942283594 0.093383797436 0.082417612453
          0.39443744185 0.094893170043 0.08400942068 0.39400442279 0.09637521034 0.085560780201
          0.39383539187 0.084364853763 0.07245794702 0.39339315098 0.085846659076 0.074105406523
          0.39354282891 0.087352824037 0.075796684233 0.39367933848 0.088858471997 0.077488503074
          0.39383292725 0.090365739932 0.079161935785 0.39401825785 0.091874220016 0.080802934415
          0.39422908138 0.093383827613 0.082417588968 0.39446031677 0.094894138654 0.084010173966
          0.39468053359 0.096407250823 0.085584992778 0.39424121747 0.097885484005 0.087125600354
          0.39398695028 0.085871110668 0.074151341789 0.39352958771 0.087352280899 0.075796299068
          0.39367927844 0.088858469531 0.077488501566 0.39383291768 0.090365739535 0.079161935326
          0.39401824976 0.09187421967 0.080802934035 0.39422912932 0.093383829635 0.082417589779
          0.3944617314 0.094894198399 0.084010208213 0.39470534632 0.096409205325 0.085585780174
          0.39492907744 0.09792712401 0.08715037409 0.39448113577 0.099395700678 0.088686975971
          0.39413737223 0.087377512725 0.075846109922 0.3936651853 0.088857889422 0.077488083135
          0.39383286081 0.090365737209 0.07916193433 0.39401824958 0.091874219663 0.080802934033
          0.3942291314 0.093383829723 0.082417589813 0.39446179778 0.094894201196 0.084010209438
          0.39470687722 0.096409325497 0.085585816098 0.3949562255 0.097929255788 0.087151180529
          0.39518021432 0.099447064588 0.088713021997 0.39471599112 0.10091072514 0.090246774202
          0.39428852482 0.088884172319 0.077540317998 0.39381787027 0.090365121325 0.079161540876
          0.3940181862 0.091874216987 0.080802933084 0.3942291311 0.09338382971 0.08241758981
          0.39446180012 0.094894201295 0.084010209472 0.39470695046 0.096409331227 0.08558581746
          0.39495796581 0.097929392025 0.087151218371 0.39520960193 0.099449428756 0.088713897112
          0.39543259001 0.10096823586 0.090273288529 0.39494820953 0.10242916044 0.091803922281
          0.39446547954 0.090392636117 0.079207599607 0.39400240636 0.091873553813 0.080802573519
          0.39422905142 0.093383826352 0.082417588711 0.39446179023 0.094894200878 0.084010209304
          0.39470694241 0.096409330597 0.085585817313 0.39495804006 0.097929397822 0.087151219651
          0.39521155166 0.099449590936 0.088713939572 0.39546473398 0.10097091684 0.090274217135
          0.39568678578 0.10248963543 0.091831255875 0.395179943 0.10394755255 0.093359187843
          0.39467122676 0.091904096018 0.080843604066 0.39421233114 0.093383118895 0.082417245687
          0.39446133268 0.094894181578 0.084010199858 0.3947065304 0.096409298285 0.085585808338
          0.39495756744 0.097929360847 0.087151210095 0.39521110928 0.099449554144 0.088713930302
          0.39546636669 0.10097105264 0.090274251723 0.39572087991 0.10249248026 0.091832297063
          0.39593987724 0.10401190547 0.093388630487 0.39540981704 0.10546682235 0.094912768176
          0.39488451628 0.093421974455 0.082453564668 0.3944330554 0.094892986541 0.084009519849
          0.39469431607 0.096408336938 0.085585454488 0.39494418581 0.097928310557 0.087150845605
          0.3951965363 0.099448357835 0.088713530671 0.39545041432 0.1009697226 0.090273825924
          0.39570611059 0.10249124795 0.091831867478 0.39595895197 0.10401362812 0.093389374789
          0.39617371732 0.10553318677 0.094945039803 0.39562241773 0.10698472712 0.096464533168
          0.39477087594 0.094913740488 0.084024850519 0.39433836169 0.096389359343 0.085572141355
          0.39460186073 0.097901378649 0.087137569277 0.39484400178 0.099420609303 0.088700069592
          0.39508758953 0.10093994537 0.090260105974 0.39533197421 0.10245999421 0.091817615522
          0.39557606317 0.10398054074 0.093373516318 0.39581725497 0.10550097631 0.094928229076
          0.39602003064 0.1070194512 0.096480939166 0.39547957201 0.10847294296 0.098000878195
        </DataArray>
        <DataArray type="Float64" Name="theta_5" format="ascii" RangeMin="0.078812203993" RangeMax="0.38086858662">
          0.36911391005 0.10015487811 0.078812203993 0.36694634891 0.10089904339 0.080394617197
          0.36773326271 0.10176478675 0.08218116333 0.36845710375 0.10262800008 0.083971977996
          0.36917608545 0.10349102049 0.085768447164 0.36989387555 0.10435440511 0.087567126603
          0.37071724857 0.10522746101 0.08925277311 0.37169231745 0.10610617949 0.090777264219
          0.37268269177 0.10698460398 0.092168147552 0.37040988006 0.10772371704 0.093308693674
          0.36841794374 0.10095959576 0.080496815948 0.3662809624 0.10170566716 0.082077728963
          0.36703022727 0.1025692426 0.083862477983 0.36771639539 0.10343088104 0.085650488139
          0.36839838788 0.10429243288 0.087442934096 0.36916622058 0.10516210171 0.089143394909
          0.37009293972 0.10603783939 0.090681661107 0.37114179699 0.10691898718 0.092088062266
          0.37218720927 0.10779918355 0.093380436734 0.37002211395 0.10854271837 0.094470567674
          0.36917695936 0.10182426882 0.082289735098 0.36696575489 0.10256662871 0.08386036595
          0.36771414455 0.10343078685 0.085650087832 0.36839669242 0.10429235999 0.087442515369
          0.36916463626 0.10516203299 0.089143012257 0.37009128923 0.10603776675 0.090681338742
          0.37114540688 0.10691913807 0.092087944841 0.37230158386 0.1078040266 0.093384203161
          0.37340266795 0.10870292078 0.094591630558 0.37120608737 0.10942742002 0.095628001768
          0.3699347514 0.10268888668 0.084090042277 0.36764793855 0.10342807116 0.085648162007
          0.3683963922 0.10429234765 0.087442507828 0.3691645884 0.10516203101 0.089143009961
          0.37009124881 0.10603776502 0.090681336844 0.37114564659 0.10691914818 0.092087948897
          0.37230865698 0.10780432533 0.093384374397 0.3735267316 0.10871269329 0.094595567539
          0.37464538721 0.10963562005 0.095751870449 0.37240567885 0.11031183672 0.096768213188
          0.37068686113 0.10355423029 0.085897216278 0.36832592648 0.10428944711 0.087440415676
          0.36916430404 0.10516201938 0.089143004982 0.37009124789 0.10603776498 0.090681336831
          0.37114565702 0.10691914862 0.092087949064 0.37230898892 0.10780433931 0.093384380523
          0.37353438608 0.10871329415 0.094595747159 0.37478112751 0.10964627894 0.095755902645
          0.37590107161 0.11056865628 0.096898443318 0.37357995559 0.11122029238 0.097900537675
          0.37144262408 0.1044208616 0.087701589991 0.36908935135 0.10515893996 0.089141037715
          0.37009093098 0.1060377516 0.090681332088 0.37114565548 0.10691914855 0.092087949048
          0.3723090006 0.10780433981 0.093384380696 0.37353475232 0.1087133228 0.094595753968
          0.37478982905 0.10964696013 0.095756091853 0.37604800965 0.11058047711 0.096902818893
          0.37716295006 0.11150784598 0.098033109312 0.37474104764 0.1121458022 0.099019611407
          0.37232739771 0.10529651392 0.089371331371 0.3700120318 0.10603443573 0.090679534263
          0.37114525709 0.10691913176 0.092087943554 0.37230895114 0.10780433772 0.093384379856
          0.37353471203 0.10871331965 0.094595753234 0.3747902003 0.10964698911 0.095756098257
          0.3760577583 0.11058128801 0.096903031193 0.37732366989 0.11152125087 0.098037752339
          0.37843392891 0.11244817717 0.099156279375 0.37589971499 0.11307109609 0.10012927255
          0.37335613381 0.10618714676 0.090884686999 0.37106165572 0.10691559448 0.092086228437
          0.3723066634 0.10780424122 0.093384332624 0.37353265202 0.10871315809 0.094595708358
          0.37478783719 0.10964680424 0.095756050477 0.37605554638 0.11058110405 0.096902984844
          0.37733183343 0.11152192986 0.098037925282 0.37860439954 0.11246240128 0.099161485316
          0.37969938622 0.11339286067 0.10027648577 0.37704908518 0.11400077842 0.10123050755
          0.37442258141 0.10710987228 0.09226782334 0.37216527702 0.10779826604 0.093380932579
          0.37347158034 0.10870835136 0.094593939105 0.37472092904 0.10964155279 0.095754228027
          0.3759826815 0.11057512251 0.096900986687 0.37725207159 0.11151527968 0.098035796284
          0.37853055297 0.11245623976 0.099159337391 0.37979475986 0.11340147396 0.10028020728
          0.38086858662 0.11433260051 0.10139186568 0.37811208864 0.11492363562 0.10232266584
          0.37385437968 0.10790203577 0.093457585929 0.37169180847 0.10861346338 0.094527373441
          0.37300930363 0.10950689325 0.095687846386 0.3742200089 0.11043637985 0.096833681293
          0.37543794767 0.11136639354 0.097967196536 0.37665987107 0.11229997105 0.099088077608
          0.37788031585 0.11323603704 0.10020091492 0.37908627484 0.11417154819 0.10130781205
          0.38010015322 0.115097256 0.10240469583 0.37739786003 0.11569804815 0.10333772431
        </DataArray>
        <DataArray type="Float64" Name="theta_25" format="ascii" RangeMin="0.10924810916" RangeMax="0.35669014866">
          0.33100038836 0.12339272792 0.10924810916 0.32024515211 0.12297323829 0.10931834467
          0.32405585488 0.12312165025 0.10980850005 0.32709713829 0.12324090348 0.11026176751
          0.33017224038 0.12336298437 0.11068582199 0.33328331961 0.12348703374 0.11108743315
          0.33642639928 0.1236147987 0.11146667412 0.33950114861 0.12374045828 0.11182411425
          0.34179470162 0.1238369029 0.11214772456 0.32914402649 0.12332630092 0.11212418344
          0.32727671168 0.12324629091 0.10952909327 0.31736998308 0.12286354112 0.109609932
          0.3209012252 0.1230002873 0.11007944418 0.3237434223 0.12311114281 0.11050698318
          0.32660132787 0.12322321164 0.1109114798 0.32948185728 0.12333703918 0.11129307327
          0.3323803073 0.12345255158 0.111653378 0.33520751131 0.1235664636 0.11199176011
          0.33733533054 0.12365351522 0.11229907105 0.32573162319 0.12319328431 0.11229077431
          0.33058547226 0.12337782368 0.11000305343 0.32016177149 0.12297178085 0.11006608679
          0.32378341506 0.12311269307 0.11050725453 0.32665269051 0.12322520883 0.11091181625
          0.32953827505 0.12333926605 0.11129338725 0.33244850969 0.12345524317 0.11165374309
          0.33537017768 0.12357302618 0.11199326174 0.33820936002 0.12368901662 0.11231338706
          0.34029914718 0.12377560364 0.11260490119 0.32811660805 0.12328739793 0.11257827067
          0.33388760269 0.12350980194 0.11045360708 0.3229377528 0.12308007475 0.11049348922
          0.32664432265 0.12322488258 0.1109117103 0.32953852275 0.12333927579 0.11129338633
          0.33244953581 0.12345528362 0.11165374855 0.33538051571 0.12357344536 0.11199336096
          0.33831740614 0.12369340163 0.11231471375 0.34115767775 0.12381105806 0.11261998702
          0.34319847993 0.12389747061 0.11290242907 0.33044362367 0.12337929435 0.11285153544
          0.33724700082 0.12364690159 0.11087620319 0.32573461502 0.1231895006 0.11089768593
          0.32952883022 0.12333889275 0.1112932748 0.33244949693 0.12345528209 0.11165374811
          0.33538138295 0.1235734805 0.11199336807 0.33832886814 0.1236938664 0.11231482321
          0.34127711574 0.123816079 0.11262144671 0.34410865669 0.12393576823 0.11291988572
          0.34607809416 0.12404508532 0.11319501674 0.33274913295 0.12347184778 0.11311269921
          0.34066945757 0.12378802572 0.11127606523 0.32854387711 0.12330038227 0.11127915639
          0.33243843447 0.12345484504 0.11165362958 0.33538125635 0.12357347537 0.11199336696
          0.33832980194 0.12369390424 0.11231483055 0.34129032235 0.12381663371 0.11262157019
          0.34424075967 0.12394132143 0.11292165792 0.34702528435 0.12410920664 0.11321618246
          0.34890548799 0.12425806997 0.11347266959 0.33503200496 0.1235639511 0.11335820745
          0.34413884255 0.12393452774 0.11165462223 0.33136899905 0.12341255701 0.11163926102
          0.33536701913 0.12357289795 0.11199322317 0.33832770483 0.12369381922 0.11231481139
          0.34128917274 0.12381658539 0.11262155828 0.34425352798 0.12394185773 0.11292178588
          0.34716474133 0.12412015581 0.1132184895 0.34990981269 0.12433701494 0.1134941227
          0.35173165284 0.12448270216 0.11372902484 0.3372832644 0.12365560952 0.11359075528
          0.34754968939 0.12414570657 0.11202020915 0.33418896294 0.123525851 0.11197829177
          0.33828029037 0.12369189555 0.11231428554 0.34125182775 0.12381501571 0.11262112512
          0.3442130598 0.12394015674 0.11292126665 0.34713668561 0.12411795218 0.11321799726
          0.35002043798 0.12434569968 0.11349583148 0.35274948279 0.12456489104 0.11375016523
          0.35450016957 0.12471195858 0.11396911215 0.33947338869 0.12374635186 0.11381039441
          0.35039854453 0.12437105127 0.1123860224 0.33664282391 0.12362542745 0.11229252196
          0.34077762265 0.12379530115 0.11261330891 0.34372385792 0.12391957497 0.1129122533
          0.34663173034 0.12407869603 0.11320694743 0.3494921414 0.12430417641 0.11348492572
          0.35234314611 0.12453188873 0.11374137066 0.35502518683 0.12475579727 0.11398013589
          0.35669014866 0.12489564677 0.11418614487 0.34126036093 0.12382085786 0.11401193179
          0.3449233297 0.12396916604 0.1124735417 0.33235366606 0.1234539005 0.11243837368
          0.33604982347 0.12360240423 0.11273985479 0.33870963064 0.1237115542 0.11301826981
          0.34135197832 0.12382133892 0.11328501545 0.34397480851 0.12394154388 0.11353884843
          0.34653819556 0.12409622418 0.11377899511 0.34893168132 0.12426259502 0.11400341325
          0.35043603192 0.12438376916 0.11419709418 0.3363841245 0.12362155679 0.1140661966
        </DataArray>
        <DataArray type="Float64" Name="theta_50" format="ascii" RangeMin="0.11464799328" RangeMax="0.36284207587">
          0.34356992836 0.12391603167 0.11489578013 0.31766175344 0.12288644921 0.11466549224
          0.32469766417 0.1231574489 0.11480744535 0.32847639107 0.12330459817 0.11491295546
          0.33223965449 0.12345354751 0.11500973085 0.33603867582 0.12360603016 0.11509941801
          0.33981515482 0.12375944426 0.1151825226 0.3431709231 0.12390040413 0.11525708301
          0.34464791042 0.12396264695 0.11531154422 0.31769197668 0.12288938062 0.11511681601
          0.33281974216 0.12347591782 0.11484014859 0.31107489618 0.12263552851 0.11464799328
          0.31689247308 0.12285733521 0.11477930456 0.32010037263 0.12298047499 0.11487842372
          0.32326865169 0.12310266543 0.11496960005 0.3264535568 0.12322637601 0.11505363563
          0.32958482577 0.12334915675 0.11513112961 0.33239692416 0.12346044985 0.11520057582
          0.33375569366 0.1235142978 0.11525318807 0.31119759981 0.12264205015 0.11509142209
          0.33764534578 0.12367071563 0.11495465958 0.31420180213 0.12275482057 0.1147570955
          0.32037768889 0.12299108286 0.11488012492 0.32363109717 0.1231167036 0.11497174797
          0.32686788677 0.12324242288 0.11505595219 0.33009562267 0.12336931815 0.1151339052
          0.33326802738 0.12349484082 0.11520558458 0.33609738448 0.12360901649 0.11527021875
          0.33734047243 0.12365959551 0.11531802139 0.31337017395 0.12272484829 0.11515052791
          0.34211933322 0.12385556735 0.11505874349 0.31709064139 0.12286529534 0.11485521244
          0.32358162556 0.1231147875 0.11497143521 0.32687311206 0.12324262511 0.11505597605
          0.33011011279 0.12336988974 0.11513397315 0.33334287062 0.12349779474 0.11520597978
          0.33652979537 0.12362654905 0.11527290202 0.33929797954 0.12373900238 0.11533278524
          0.34042633574 0.1237855386 0.11537691267 0.31526312402 0.12279700375 0.11520403154
          0.34664769948 0.12408414527 0.11515591084 0.31995176214 0.12297513388 0.11494547844
          0.3268111367 0.12324022487 0.11505561224 0.33011021854 0.12336989389 0.1151339729
          0.33335308997 0.12349819789 0.11520602687 0.33660772288 0.12362970741 0.11527331197
          0.33977490396 0.12375834063 0.11533566119 0.34248953921 0.12387224971 0.11539249213
          0.34347885896 0.12391395933 0.11543336577 0.31708974317 0.12286690446 0.11525371336
          0.35116107479 0.12443917667 0.11525069449 0.32279099322 0.12308447735 0.11502846902
          0.3300369055 0.12336700043 0.11513356043 0.3333520779 0.12349815795 0.11520602156
          0.33661829875 0.12363013586 0.11527336057 0.33986453653 0.12376197349 0.11533611904
          0.34299975928 0.12389368441 0.1153955874 0.3456796408 0.12401151916 0.11545048504
          0.34649715866 0.12407492329 0.11548949796 0.31886745701 0.12293510339 0.11529977674
          0.35572758102 0.1248166666 0.11534333616 0.32560401393 0.12319375687 0.11510491863
          0.33325445291 0.12349430488 0.11520549882 0.33660279759 0.12362950765 0.11527328078
          0.33986053297 0.12376181107 0.11533609246 0.34308065287 0.12389708156 0.11539600821
          0.34621324195 0.12405228162 0.11545434211 0.34873735444 0.12425096201 0.11550897142
          0.3494142317 0.12430443282 0.11554259573 0.32058172419 0.12300086119 0.11534269843
          0.36010733984 0.12519711542 0.1154318294 0.32830497228 0.12329889688 0.11517490774
          0.3363633165 0.12361979968 0.11527190611 0.33969533065 0.12375511312 0.11533513203
          0.34291850618 0.12389026976 0.11539503584 0.34613339229 0.12404600742 0.11545367381
          0.34913511819 0.12428220366 0.11551181651 0.35159864827 0.12447609823 0.11556084012
          0.35209739388 0.12451603494 0.11559017575 0.32216843463 0.12306182444 0.11538226435
          0.36284207587 0.12544464223 0.1155032038 0.33026813484 0.12337663192 0.11523362165
          0.33846640799 0.12370526814 0.11532640804 0.34173013542 0.12384032801 0.11538636148
          0.34488206297 0.12397292628 0.11544355653 0.34793095006 0.12418757664 0.11550149422
          0.35085582815 0.12441770642 0.11555415801 0.35316210269 0.12460491995 0.11559929344
          0.35353650585 0.12463641971 0.11562521996 0.32322875542 0.12310301758 0.1154153044
          0.34779825196 0.12417622275 0.11537854214 0.32147752077 0.12303447194 0.11518937415
          0.32776919315 0.12327824244 0.11527015706 0.33038739038 0.12338157868 0.11532471679
          0.33290600184 0.12348120463 0.11537565763 0.33538560422 0.12358075289 0.11542361411
          0.33775598343 0.12367701449 0.11546865119 0.33971009036 0.12375665136 0.11550906789
          0.34020474213 0.12377685319 0.11553599745 0.31549806472 0.12280678716 0.11537506788
        </DataArray>
        <DataArray type="Float64" Name="theta_100" format="ascii" RangeMin="0.11539160311" RangeMax="0.39671129045">
          0.39459777853 0.13152635897 0.11614981015 0.31059233846 0.12261997944 0.11549345655
          0.3360044726 0.12360573648 0.11561258239 0.34136026108 0.1238250172 0.11564466192
          0.34614107711 0.12404657698 0.11567492657 0.35067349798 0.12440298104 0.11570521594
          0.35460693567 0.12472506919 0.11573313716 0.35688535734 0.12491548822 0.11575164285
          0.35431397773 0.12470104657 0.11574148149 0.29552878179 0.12204692527 0.11543305687
          0.35783801384 0.12499413505 0.11573436521 0.30125576519 0.12226516472 0.11543839482
          0.31625625949 0.12283501778 0.11551204872 0.31969053312 0.1229665257 0.11553363804
          0.32283509605 0.12308735126 0.11555370207 0.32591304027 0.12320670503 0.11557337618
          0.32867824013 0.12331444169 0.11559143207 0.33052837393 0.12338757602 0.11560474374
          0.32974675683 0.1233567519 0.11560383527 0.28869549003 0.12178331466 0.11539160311
          0.36809623449 0.12596129419 0.11580687089 0.30345009958 0.12234881472 0.1154560377
          0.32124342795 0.12302594177 0.1155405049 0.32499418026 0.12317099839 0.11556327149
          0.32838995366 0.12330295889 0.11558439314 0.33168696948 0.12343324909 0.11560513684
          0.33459134869 0.12354865915 0.11562395441 0.33643536548 0.12362350654 0.11563735761
          0.33510749617 0.12356970523 0.11563385394 0.28987698459 0.12182920838 0.11540141479
          0.37555391026 0.12679876586 0.11586973503 0.30490007931 0.12240402007 0.1154694044
          0.32460470139 0.12315591175 0.11556161416 0.32846553448 0.12330594216 0.11558470017
          0.33187695393 0.12344074927 0.11560592834 0.33515818535 0.12357164269 0.11562654378
          0.33803372051 0.1236883357 0.11564549013 0.3397492954 0.12375797 0.11565798553
          0.33799012095 0.12368667571 0.11565236093 0.29063062609 0.12185849291 0.11540850019
          0.3830161293 0.12794263742 0.11594885038 0.30613849957 0.12245112867 0.11548148475
          0.32794478731 0.12328542559 0.11558247875 0.33188899426 0.12344122443 0.11560597271
          0.33529108619 0.12357703036 0.11562711251 0.33855929091 0.12370964796 0.11564794057
          0.34137228301 0.12382580974 0.11566660326 0.34294538147 0.1238919657 0.11567858887
          0.34071938102 0.12379848119 0.11567030667 0.29131243385 0.12188498873 0.11541499383
          0.38980546485 0.12954384246 0.11606022753 0.30730298273 0.12249539251 0.11549257506
          0.33125344497 0.12341613259 0.11560323516 0.33528647388 0.12357684325 0.11562708815
          0.33869322572 0.12371507787 0.11564851498 0.34193792018 0.12384957634 0.11566939156
          0.34461674875 0.12396220853 0.11568763495 0.34610606935 0.12404472408 0.11569904383
          0.34336882897 0.12390987195 0.11568812945 0.29190823709 0.12190813586 0.11542091399
          0.39461822904 0.13154354222 0.11618764278 0.30872427127 0.12254931855 0.11550346532
          0.33445244858 0.12354302969 0.1156233809 0.33857165391 0.12371014856 0.11564796559
          0.34196016396 0.1238505103 0.11566946976 0.3450986253 0.12398245713 0.11569004799
          0.34766030868 0.12416689238 0.11570811278 0.34898746235 0.12427131543 0.11571889278
          0.34578947686 0.12402091946 0.11570474733 0.2924612663 0.1219294301 0.11542637555
          0.39671129045 0.13298829244 0.1162791868 0.31053897706 0.12261817229 0.11551476564
          0.33712947468 0.12365166931 0.11564125793 0.34124092765 0.12382028821 0.11566581444
          0.34448881534 0.12395683127 0.11568687756 0.34749190527 0.12415365698 0.11570713948
          0.34991495833 0.12434423335 0.11572458347 0.35113469443 0.12444020531 0.11573450125
          0.3474884583 0.12415383131 0.11571766253 0.29299998527 0.12195012348 0.11543141079
          0.39471753352 0.13161505975 0.11622082134 0.31154903004 0.12265663639 0.11552247024
          0.33768578986 0.12367427963 0.11564741636 0.34159676396 0.12383528761 0.11567101901
          0.34463213728 0.12396289688 0.11569081809 0.3474118157 0.12414748328 0.11570976275
          0.34964605345 0.12432321766 0.11572597997 0.35071459856 0.12440729781 0.11573479013
          0.3470604598 0.12412028808 0.11571757231 0.29339521685 0.12196528624 0.11543477042
          0.35609743953 0.12484989147 0.11575460467 0.30168505844 0.12228181876 0.11546459415
          0.31589163432 0.12282143276 0.11553373227 0.31818480882 0.12290921374 0.11554797454
          0.32010522942 0.12298275949 0.11556039675 0.32192557498 0.12305247631 0.11557226777
          0.32349420787 0.12311327345 0.11558282293 0.32442467688 0.12314936444 0.11558972321
          0.32314770909 0.12309990563 0.11558500342 0.28644916283 0.12169639837 0.1153927568
        </DataArray>
        <DataArray type="Float64" Name="theta_200" format="ascii" RangeMin="0.11517221228" RangeMax="0.41712103977">
          0.41712103977 0.18999029346 0.11778724423 0.35712144989 0.12493390316 0.11571452453
          0.36742814561 0.12589503439 0.11582731895 0.37578122365 0.12682832342 0.11590386684
          0.38099317013 0.12757933621 0.11596483444 0.38395262205 0.1281470762 0.11601066024
          0.38487256134 0.12834569846 0.11603039311 0.38132255378 0.12762801794 0.11598688153
          0.34919071372 0.12428812911 0.11573899092 0.24850193777 0.12010410957 0.11517221228
          0.41241573219 0.16198204669 0.11734053339 0.28039461592 0.12145639573 0.11531768123
          0.31099782023 0.1226351034 0.11550205099 0.31547007855 0.12280517294 0.11552640916
          0.31828921929 0.12291297518 0.11554225065 0.32085292244 0.12301113492 0.11555673501
          0.32265842897 0.12308059544 0.11556745311 0.32312337225 0.1230986488 0.11557109156
          0.31622848444 0.12283420902 0.11553674553 0.25437059935 0.12036896499 0.11519437908
          0.41102204524 0.15682330181 0.1172250295 0.28676621832 0.1217068082 0.11534889114
          0.32280664197 0.12308622769 0.11556224848 0.3285708055 0.12331013365 0.11559438409
          0.33193183857 0.12344295076 0.11561420215 0.33458343731 0.12354836015 0.11563044594
          0.3361929872 0.12361368558 0.11564111608 0.33629746296 0.12361794445 0.11564290215
          0.32372800598 0.12312220532 0.11557935224 0.25214295358 0.12026923123 0.11518420953
          0.41102169355 0.15682344823 0.11722552215 0.29197250397 0.12190882509 0.11537685161
          0.32676937505 0.12323986262 0.11558429962 0.33274711521 0.12347515243 0.11561821838
          0.33613738828 0.12361139024 0.11563850851 0.33872626874 0.12371644963 0.11565483166
          0.34017403567 0.12377546441 0.1156646107 0.34002725728 0.12376931828 0.11566506137
          0.32526636532 0.12318187287 0.11558941548 0.25160961284 0.12024534407 0.11518172163
          0.41148527228 0.15834858359 0.11726195727 0.29901989943 0.12217897444 0.1154142398
          0.33038454245 0.1233817996 0.11560498614 0.33636041763 0.123620435 0.11563959234
          0.33967634668 0.12375498791 0.11565982698 0.34213681545 0.12385796357 0.11567583757
          0.34338799493 0.12391057756 0.11568471944 0.34294070897 0.12389180383 0.11568360663