<?xml version="1.0"?>
<VTKFile type="UnstructuredGrid" version="0.1" byte_order="LittleEndian" header_type="UInt32" compressor="vtkZLibDataCompressor">
  <UnstructuredGrid>
    <Piece NumberOfPoints="300" NumberOfCells="970">
      <PointData>
        <DataArray type="Float64" Name="z0" format="ascii" RangeMin="0" RangeMax="33">
          0 3 6 2 5 8
          4 7 10 6 9 12
          8 11 14 10 13 16
          12 15 18 14 17 20
          16 19 22 18 21 24
          1 4 7 3 6 9
          5 8 11 7 10 13
          9 12 15 11 14 17
          13 16 19 15 18 21
          17 20 23 19 22 25
          2 5 8 4 7 10
          6 9 12 8 11 14
          10 13 16 12 15 18
          14 17 20 16 19 22
          18 21 24 20 23 26
          3 6 9 5 8 11
          7 10 13 9 12 15
          11 14 17 13 16 19
          15 18 21 17 20 23
          19 22 25 21 24 27
          4 7 10 6 9 12
          8 11 14 10 13 16
          12 15 18 14 17 20
          16 19 22 18 21 24
          20 23 26 22 25 28
          5 8 11 7 10 13
          9 12 15 11 14 17
          13 16 19 15 18 21
          17 20 23 19 22 25
          21 24 27 23 26 29
          6 9 12 8 11 14
          10 13 16 12 15 18
          14 17 20 16 19 22
          18 21 24 20 23 26
          22 25 28 24 27 30
          7 10 13 9 12 15
          11 14 17 13 16 19
          15 18 21 17 20 23
          19 22 25 21 24 27
          23 26 29 25 28 31
          8 11 14 10 13 16
          12 15 18 14 17 20
          16 19 22 18 21 24
          20 23 26 22 25 28
          24 27 30 26 29 32
          9 12 15 11 14 17
          13 16 19 15 18 21
          17 20 23 19 22 25
          21 24 27 23 26 29
          25 28 31 27 30 33
        </DataArray>
        <DataArray type="Float64" Name="ks" format="ascii" RangeMin="10" RangeMax="10">
          10 10 10 10 10 10
          10 10 10 10 10 10
          10 10 10 10 10 10
          10 10 10 10 10 10
          10 10 10 10 10 10
          10 10 10 10 10 10
          10 10 10 10 10 10
          10 10 10 10 10 10
          10 10 10 10 10 10
          10 10 10 10 10 10
          10 10 10 10 10 10
          10 10 10 10 10 10
          10 10 10 10 10 10
          10 10 10 10 10 10
          10 10 10 10 10 10
          10 10 10 10 10 10
          10 10 10 10 10 10
          10 10 10 10 10 10
          10 10 10 10 10 10
          10 10 10 10 10 10
          10 10 10 10 10 10
          10 10 10 10 10 10
          10 10 10 10 10 10
          10 10 10 10 10 10
          10 10 10 10 10 10
          10 10 10 10 10 10
          10 10 10 10 10 10
          10 10 10 10 10 10
          10 10 10 10 10 10
          10 10 10 10 10 10
          10 10 10 10 10 10
          10 10 10 10 10 10
          10 10 10 10 10 10
          10 10 10 10 10 10
          10 10 10 10 10 10
          10 10 10 10 10 10
          10 10 10 10 10 10
          10 10 10 10 10 10
          10 10 10 10 10 10
          10 10 10 10 10 10
          10 10 10 10 10 10
          10 10 10 10 10 10
          10 10 10 10 10 10
          10 10 10 10 10 10
          10 10 10 10 10 10
          10 10 10 10 10 10
          10 10 10 10 10 10
          10 10 10 10 10 10
          10 10 10 10 10 10
          10 10 10 10 10 10
        </DataArray>
      </PointData>
      <CellData>
      </CellData>
      <Points>
        <DataArray type="Float32" Name="Points" NumberOfComponents="3" format="ascii" RangeMin="0" RangeMax="1314.87642">
          0 0 0 0 0 30
          0 0 60 0 100 20
          0 100 50 0 100 80
          0 200 40 0 200 70
          0 200 100 0 300 60
          0 300 90 0 300 120
          0 400 80 0 400 110
          0 400 140 0 500 100
          0 500 130 0 500 160
          0 600 120 0 600 150
          0 600 180 0 700 140
          0 700 170 0 700 200
          0 800 160 0 800 190
          0 800 220 0 900 180
          0 900 210 0 900 240
          100 0 10 100 0 40
          100 0 70 100 100 30
          100 100 60 100 100 90
          100 200 50 100 200 80
          100 200 110 100 300 70
          100 300 100 100 300 130
          100 400 90 100 400 120
          100 400 150 100 500 110
          100 500 140 100 500 170
          100 600 130 100 600 160
          100 600 190 100 700 150
          100 700 180 100 700 210
          100 800 170 100 800 200
          100 800 230 100 900 190
          100 900 220 100 900 250
          200 0 20 200 0 50
          200 0 80 200 100 40
          200 100 70 200 100 100
          200 200 60 200 200 90
          200 200 120 200 300 80
          200 300 110 200 300 140
          200 400 100 200 400 130
          200 400 160 200 500 120
          200 500 150 200 500 180
          200 600 140 200 600 170
          200 600 200 200 700 160
          200 700 190 200 700 220
          200 800 180 200 800 210
          200 800 240 200 900 200
          200 900 230 200 900 260
          300 0 30 300 0 60
          300 0 90 300 100 50
          300 100 80 300 100 110
          300 200 70 300 200 100
          300 200 130 300 300 90
          300 300 120 300 300 150
          300 400 110 300 400 140
          300 400 170 300 500 130
          300 500 160 300 500 190
          300 600 150 300 600 180
          300 600 210 300 700 170
          300 700 200 300 700 230
          300 800 190 300 800 220
          300 800 250 300 900 210
          300 900 240 300 900 270
          400 0 40 400 0 70
          400 0 100 400 100 60
          400 100 90 400 100 120
          400 200 80 400 200 110
          400 200 140 400 300 100
          400 300 130 400 300 160
          400 400 120 400 400 150
          400 400 180 400 500 140
          400 500 170 400 500 200
          400 600 160 400 600 190
          400 600 220 400 700 180
          400 700 210 400 700 240
          400 800 200 400 800 230
          400 800 260 400 900 220
          400 900 250 400 900 280
          500 0 50 500 0 80
          500 0 110 500 100 70
          500 100 100 500 100 130
          500 200 90 500 200 120
          500 200 150 500 300 110
          500 300 140 500 300 170
          500 400 130 500 400 160
          500 400 190 500 500 150
          500 500 180 500 500 210
          500 600 170 500 600 200
          500 600 230 500 700 190
          500 700 220 500 700 250
          500 800 210 500 800 240
          500 800 270 500 900 230
          500 900 260 500 900 290
          600 0 60 600 0 90
          600 0 120 600 100 80
          600 100 110 600 100 140
          600 200 100 600 200 130
          600 200 160 600 300 120
          600 300 150 600 300 180
          600 400 140 600 400 170
          600 400 200 600 500 160
          600 500 190 600 500 220
          600 600 180 600 600 210
          600 600 240 600 700 200
          600 700 230 600 700 260
          600 800 220 600 800 250
          600 800 280 600 900 240
          600 900 270 600 900 300
          700 0 70 700 0 100
          700 0 130 700 100 90
          700 100 120 700 100 150
          700 200 110 700 200 140
          700 200 170 700 300 130
          700 300 160 700 300 190
          700 400 150 700 400 180
          700 400 210 700 500 170
          700 500 200 700 500 230
          700 600 190 700 600 220
          700 600 250 700 700 210
          700 700 240 700 700 270
          700 800 230 700 800 260
          700 800 290 700 900 250
          700 900 280 700 900 310
          800 0 80 800 0 110
          800 0 140 800 100 100
          800 100 130 800 100 160
          800 200 120 800 200 150
          800 200 180 800 300 140
          800 300 170 800 300 200
          800 400 160 800 400 190
          800 400 220 800 500 180
          800 500 210 800 500 240
          800 600 200 800 600 230
          800 600 260 800 700 220
          800 700 250 800 700 280
          800 800 240 800 800 270
          800 800 300 800 900 260
          800 900 290 800 900 320
          900 0 90 900 0 120
          900 0 150 900 100 110
          900 100 140 900 100 170
          900 200 130 900 200 160
          900 200 190 900 300 150
          900 300 180 900 300 210
          900 400 170 900 400 200
          900 400 230 900 500 190
          900 500 220 900 500 250
          900 600 210 900 600 240
          900 600 270 900 700 230
          900 700 260 900 700 290
          900 800 250 900 800 280
          900 800 310 900 900 270
          900 900 300 900 900 330
        </DataArray>
      </Points>
      <Cells>
        <DataArray type="Int64" Name="connectivity" format="ascii" RangeMin="0" RangeMax="299">
          3 1 0 30 70 72
          43 73 63 61 60 90
          2 31 4 34 31 30
          1 33 4 2 1 31
          6 4 3 33 43 14
          41 44 8 37 10 40
          52 51 22 54 16 14
          13 43 40 42 13 43
          15 16 13 45 32 31
          2 34 33 31 30 60
          28 55 25 57 47 44
          46 76 17 14 16 46
          37 8 35 38 34 5
          32 35 67 38 65 68
          32 2 5 34 12 13
          10 42 3 4 1 33
          1 30 3 33 47 46
          17 49 35 5 8 37
          7 5 4 34 38 8
          11 40 77 76 47 79
          10 8 7 37 40 38
          37 67 62 91 64 94
          34 32 31 61 13 11
          10 40 6 7 4 36
          13 40 10 42 9 10
          7 39 45 46 43 75
          40 11 38 41 77 74
          76 106 32 61 34 64
          31 33 4 34 49 48
          19 51 14 43 16 46
          49 20 47 50 11 40
          13 43 64 35 62 65
          9 7 6 36 61 60
          31 63 5 34 7 37
          4 31 1 33 5 2
          4 34 34 33 4 36
          46 17 44 47 12 10
          9 39 34 36 7 37
          4 33 6 36 35 34
          5 37 61 63 34 64
          38 67 40 70 7 34
          4 36 8 5 7 37
          37 36 7 39 46 44
          43 73 10 39 12 42
          37 39 10 40 49 51
          22 52 7 36 9 39
          38 37 8 40 44 43
          14 46 100 102 73 103
          93 91 90 120 73 44
          71 74 10 37 7 39
          11 8 10 40 41 11
          14 43 46 48 19 49
          15 13 12 42 40 39
          10 42 41 40 11 43
          14 11 13 43 44 14
          17 46 43 45 16 46
          70 41 68 71 62 32
          35 64 37 35 34 64
          43 42 13 45 20 17
          19 49 19 17 16 46
          33 34 31 63 13 42
          15 45 97 68 95 98
          18 16 15 45 16 43
          13 45 22 20 19 49
          46 45 16 48 25 52
          22 54 16 45 18 48
          39 40 37 69 21 19
          18 48 47 17 20 49
          18 19 16 48 19 46
          16 48 68 38 41 70
          17 46 19 49 20 49
          22 52 27 25 24 54
          65 35 38 67 19 48
          21 51 24 22 21 51
          107 106 77 109 50 49
          20 52 24 25 22 54
          52 23 50 53 21 22
          19 51 22 49 19 51
          52 54 25 55 55 54
          25 57 23 20 22 52
          50 20 23 52 25 23
          22 52 22 51 24 54
          27 28 25 57 28 26
          25 55 25 54 27 57
          64 62 61 91 82 81
          52 84 23 52 25 55
          53 52 23 55 26 23
          25 55 53 23 26 55
          55 26 53 56 29 26
          28 58 58 85 55 87
          70 68 67 97 56 26
          29 58 55 57 28 58
          26 55 28 58 56 55
          26 58 56 58 29 59
          43 41 40 70 42 43
          40 72 36 34 33 63
          31 60 33 63 62 61
          32 64 166 168 139 169
          75 76 73 105 36 37
          34 66 43 70 40 72
          79 78 49 81 44 73
          46 76 79 50 77 80
          41 70 43 73 94 65
          92 95 39 37 36 66
          91 90 61 93 35 64
          37 67 34 61 31 63
          35 32 34 64 64 63
          34 66 76 47 74 77
          42 40 39 69 64 66
          37 67 34 63 36 66
          65 64 35 67 91 93
          64 94 68 97 70 100
          37 64 34 66 38 35
          37 67 67 66 37 69
          76 74 73 103 40 69
          42 72 67 69 40 70
          79 81 52 82 37 66
          39 69 68 67 38 70
          74 73 44 76 104 133
          106 136 103 74 101 104
          40 67 37 69 41 38
          40 70 71 41 44 73
          76 78 49 79 45 43
          42 72 70 69 40 72
          71 70 41 73 44 41
          43 73 74 44 47 76
          73 75 46 76 100 71
          98 101 92 62 65 94
          67 65 64 94 73 72
          43 75 50 47 49 79
          49 47 46 76 63 64
          61 93 43 72 45 75
          127 98 125 128 48 46
          45 75 46 73 43 75
          52 50 49 79 76 75
          46 78 55 82 52 84
          46 75 48 78 69 70
          67 99 51 49 48 78
          77 47 50 79 48 49
          46 78 49 76 46 78
          98 68 71 100 47 76
          49 79 50 79 52 82
          57 55 54 84 95 65
          68 97 49 78 51 81
          54 52 51 81 161 131
          134 163 80 79 50 82
          54 55 52 84 82 53
          80 83 51 52 49 81
          52 79 49 81 82 84
          55 85 85 84 55 87
          53 50 52 82 80 50
          53 82 55 53 52 82
          52 81 54 84 57 58
          55 87 58 56 55 85
          55 84 57 87 94 92
          91 121 112 111 82 114
          53 82 55 85 83 82
          53 85 56 53 55 85
          83 53 56 85 85 56
          83 86 59 56 58 88
          88 115 85 117 95 124
          97 127 86 56 59 88
          85 87 58 88 56 85
          58 88 86 85 56 88
          86 88 59 89 73 71
          70 100 72 73 70 102
          66 64 63 93 61 90
          63 93 92 91 62 94
          66 67 64 96 73 100
          70 102 109 108 79 111
          74 103 76 106 109 80
          107 110 133 131 130 160
          71 100 73 103 124 95
          122 125 69 67 66 96
          121 120 91 123 65 94
          67 97 64 91 61 93
          65 62 64 94 94 93
          64 96 106 77 104 107
          72 70 69 99 94 96
          67 97 64 93 66 96
          95 94 65 97 137 136
          107 139 67 94 64 96
          68 65 67 97 97 96
          67 99 123 121 120 150
          70 99 72 102 97 99
          70 100 109 111 82 112
          67 96 69 99 156 157
          154 186 98 97 68 100
          104 103 74 106 136 138
          109 139 102 103 100 132
          122 92 95 124 70 97
          67 99 71 68 70 100
          92 121 94 124 101 71
          74 103 106 108 79 109
          155 125 128 157 75 73
          72 102 100 99 70 102
          101 100 71 103 74 71
          73 103 104 74 77 106
          103 105 76 106 130 101
          128 131 97 95 94 124
          103 102 73 105 80 77
          79 109 79 77 76 106
          93 94 91 123 73 102
          75 105 151 153 124 154
          78 76 75 105 76 103
          73 105 82 80 79 109
          164 163 134 166 106 105
          76 108 85 112 82 114
          76 105 78 108 81 79
          78 108 107 77 80 109
          78 79 76 108 79 106
          76 108 77 106 79 109
          80 109 82 112 128 98
          101 130 87 85 84 114
          79 108 81 111 84 82
          81 111 87 88 85 117
          110 109 80 112 84 85
          82 114 112 83 110 113
          81 82 79 111 82 109
          79 111 115 114 85 117
          83 80 82 112 110 80
          83 112 85 83 82 112
          82 111 84 114 100 98
          97 127 85 114 87 117
          142 141 112 144 98 127
          100 130 145 144 115 147
          112 114 85 115 88 86
          85 115 83 112 85 115
          113 112 83 115 86 83
          85 115 113 83 86 115
          115 86 113 116 89 86
          88 118 118 145 115 147
          116 86 89 118 115 117
          88 118 86 115 88 118
          116 115 86 118 116 118
          89 119 103 101 100 130
          121 123 94 124 96 94
          93 123 91 120 93 123
          103 130 100 132 122 121
          92 124 117 118 115 147
          104 101 103 133 96 97
          94 126 101 130 103 133
          132 133 130 162 105 103
          102 132 131 101 104 133
          115 144 117 147 125 95
          98 127 99 100 97 129
          135 133 132 162 99 97
          96 126 130 128 127 157
          94 121 91 123 95 92
          94 124 124 123 94 126
          136 107 134 137 102 100
          99 129 124 126 97 127
          94 123 96 126 107 104
          106 136 125 124 95 127
          105 106 103 135 163 165
          136 166 152 151 122 154
          97 124 94 126 98 95
          97 127 127 126 97 129
          153 151 150 180 130 129
          100 132 127 129 100 130
          97 126 99 129 221 191
          194 223 128 127 98 130
          134 133 104 136 183 181
          180 210 124 151 121 153
          142 110 139 143 100 127
          97 129 101 98 100 130
          106 104 103 133 131 130
          101 133 130 132 103 133
          100 129 102 132 115 142
          112 144 133 104 131 134
          134 104 107 136 133 135
          106 136 170 199 172 202
          152 122 125 154 114 115
          112 144 133 132 103 135
          110 107 109 139 109 107
          106 136 154 156 127 157
          103 132 105 135 108 106
          105 135 137 169 139 170
          106 133 103 135 112 110
          109 139 136 135 106 138
          125 122 124 154 106 135
          108 138 151 150 121 153
          111 109 108 138 137 107
          110 139 112 141 114 144
          139 141 112 142 108 109
          106 138 109 136 106 138
          128 125 127 157 107 136
          109 139 114 112 111 141
          122 151 124 154 109 138
          111 141 139 138 109 141
          117 115 114 144 115 113
          112 142 111 112 109 141
          112 139 109 141 113 110
          112 142 110 139 112 142
          172 171 142 174 110 142
          113 143 128 157 130 160
          139 137 136 166 142 144
          115 145 118 116 115 145
          113 142 115 145 143 142
          113 145 116 113 115 145
          143 113 116 145 145 116
          143 146 136 163 133 165
          119 116 118 148 191 161
          164 193 146 116 119 148
          145 147 118 148 116 145
          118 148 146 145 116 148
          146 148 119 149 157 184
          154 186 121 150 123 153
          123 124 121 153 124 122
          121 151 190 161 188 191
          157 128 155 158 154 125
          152 155 153 154 151 183
          127 125 124 154 169 137
          167 170 125 154 127 157
          126 124 123 153 160 159
          130 162 136 134 133 163
          151 180 153 183 127 154
          124 156 129 127 126 156
          126 127 124 156 159 160
          157 189 130 159 132 162
          154 153 124 156 166 137
          164 167 155 154 125 157
          188 185 187 217 187 158
          185 188 124 153 126 156
          137 134 136 166 157 159
          130 160 130 157 127 159
          218 217 188 220 132 130
          129 159 158 157 128 160
          129 130 127 159 158 128
          131 160 157 156 127 159
          160 131 158 161 191 190
          161 193 186 184 183 213
          127 156 129 159 135 136
          133 165 159 157 156 186
          131 128 130 160 133 160
          130 162 169 168 139 171
          163 134 161 164 131 160
          133 163 160 162 133 163
          138 136 135 165 161 160
          131 163 134 131 133 163
          157 155 154 184 154 181
          151 183 163 162 133 165
          144 145 142 174 170 169
          142 172 133 162 135 165
          137 166 139 169 194 191
          193 223 145 174 147 177
          164 134 137 166 184 155
          182 185 145 172 142 174
          134 163 136 166 166 165
          136 168 155 184 157 187
          136 165 138 168 181 180
          151 183 141 139 138 168
          167 166 137 169 189 187
          186 216 138 139 136 168
          139 166 136 168 184 186
          157 187 143 170 142 172
          167 164 166 196 139 168
          141 171 144 142 141 171
          142 143 139 170 139 169
          142 170 139 110 137 170
          143 110 139 170 169 171
          142 172 142 139 141 171
          169 139 142 171 147 145
          144 174 145 143 142 172
          202 204 175 205 142 171
          144 174 172 143 170 173
          175 174 145 177 192 190
          189 219 172 174 145 175
          148 146 145 175 143 172
          145 175 173 172 143 175
          146 143 145 175 173 143
          146 175 175 146 173 176
          175 177 148 178 202 201
          172 204 248 218 221 250
          164 161 163 193 147 148
          145 177 148 175 145 177
          149 146 148 178 176 146
          149 178 146 175 148 178
          176 175 146 178 176 178
          149 179 213 211 210 240
          182 181 152 184 222 223
          220 252 191 188 190 220
          154 152 151 181 212 182
          185 214 211 240 213 243
          185 155 158 187 152 181
          154 184 155 152 154 184
          188 158 161 190 163 161
          160 190 190 217 187 219
          170 167 169 199 156 154
          153 183 182 152 155 184
          181 183 154 184 160 158
          157 187 161 190 163 193
          165 163 162 192 184 183
          154 186 220 191 218 221
          160 187 157 189 158 155
          157 187 154 183 156 186
          185 184 155 187 187 189
          160 190 163 190 160 192
          162 160 159 189 158 187
          160 190 187 186 157 189
          188 187 158 190 161 158
          160 190 193 195 166 196
          157 186 159 189 194 164
          167 196 194 193 164 196
          166 164 163 193 193 164
          191 194 160 189 162 192
          190 192 163 193 199 198
          169 201 165 166 163 195
          162 163 160 192 190 189
          160 192 229 228 199 231
          164 193 166 196 196 198
          169 199 200 197 199 229
          193 192 163 195 169 167
          166 196 184 213 186 216
          163 192 165 195 197 196
          167 199 184 211 181 213
          168 166 165 195 172 170
          169 199 199 201 172 202
          166 193 163 195 196 195
          166 198 196 167 194 197
          182 211 184 214 166 195
          168 198 171 169 168 198
          197 167 170 199 168 169
          166 198 169 196 166 198
          218 188 191 220 167 196
          169 199 199 170 197 200
          214 213 184 216 177 175
          174 204 212 241 214 244
          169 198 171 201 174 172
          171 201 185 214 187 217
          200 199 170 202 174 175
          172 204 171 172 169 201
          172 199 169 201 173 202
          175 205 173 170 172 202
          200 170 173 202 175 173
          172 202 172 201 174 204
          202 173 200 203 196 194
          193 223 175 202 172 204
          226 228 199 229 232 234
          205 235 175 204 177 207
          203 202 173 205 178 176
          175 205 176 173 175 205
          203 173 176 205 205 204
          175 207 205 176 203 206
          205 207 178 208 232 231
          202 234 195 193 192 222
          194 223 196 226 200 229
          202 232 177 178 175 207
          178 205 175 207 179 176
          178 208 206 176 179 208
          176 205 178 208 206 205
          176 208 206 208 179 209
          221 220 191 223 183 184
          181 213 247 249 220 250
          184 182 181 211 230 227
          229 259 188 217 190 220
          187 214 184 216 193 220
          190 222 214 212 211 241
          185 182 184 214 190 188
          187 217 248 245 247 277
          187 216 189 219 212 211
          182 214 181 210 183 213
          211 210 181 213 211 213
          184 214 215 214 185 217
          187 185 184 214 214 216
          187 217 214 185 212 215
          217 188 215 218 215 185
          188 217 189 190 187 219
          244 215 242 245 247 218
          245 248 186 187 184 216
          219 220 217 249 243 241
          240 270 272 271 242 274
          217 216 187 219 217 219
          190 220 224 194 197 226
          192 193 190 222 190 219
          192 222 223 194 221 224
          265 264 235 267 193 191
          190 220 213 214 211 243
          223 225 196 226 195 196
          193 225 220 219 190 222
          242 241 212 244 245 242
          244 274 197 194 196 226
          220 222 193 223 191 220
          193 223 224 223 194 226
          253 224 251 254 199 197
          196 226 223 222 193 225
          254 224 227 256 227 226
          197 229 274 245 272 275
          193 222 195 225 198 196
          195 225 202 200 199 229
          229 231 202 232 196 223
          193 225 245 274 247 277
          251 221 224 253 226 225
          196 228 226 197 224 227
          242 212 215 244 196 225
          198 228 246 244 243 273
          201 199 198 228 227 197
          200 229 198 199 196 228
          199 226 196 228 221 218
          220 250 197 226 199 229
          229 200 227 230 215 244
          217 247 207 205 204 234
          199 228 201 231 204 202
          201 231 245 215 218 247
          230 229 200 232 204 205
          202 234 201 202 199 231
          202 229 199 231 203 232
          205 235 203 200 202 232
          230 200 203 232 205 203
          202 232 202 231 204 234
          232 203 230 233 224 221
          223 253 205 232 202 234
          259 258 229 261 262 264
          235 265 205 234 207 237
          233 232 203 235 208 206
          205 235 206 203 205 235
          233 203 206 235 235 234
          205 237 235 206 233 236
          235 237 208 238 262 261
          232 264 227 224 226 256
          250 248 247 277 207 208
          205 237 208 235 205 237
          209 206 208 238 236 206
          209 238 206 235 208 238
          236 235 206 238 236 238
          209 239 241 240 211 243
          220 218 217 247 217 215
          214 244 223 221 220 250
          251 250 221 253 215 212
          214 244 216 214 213 243
          244 242 241 271 250 252
          223 253 248 247 218 250
          216 217 214 246 225 226
          223 255 241 243 214 244
          214 241 211 243 218 215
          217 247 244 246 217 247
          244 243 214 246 245 244
          215 247 224 253 226 256
          214 243 216 246 219 217
          216 246 230 259 232 262
          253 255 226 256 217 244
          214 246 274 273 244 276
          247 246 217 249 218 247
          220 250 217 246 219 249
          247 245 244 274 222 220
          219 249 220 247 217 249
          250 221 248 251 256 258
          229 259 226 224 223 253
          250 249 220 252 221 250
          223 253 242 271 244 274
          220 249 222 252 225 223
          222 252 254 253 224 256
          223 250 220 252 284 283
          254 286 229 227 226 256
          253 252 223 255 257 256
          227 259 223 252 225 255
          228 226 225 255 232 230
          229 259 259 261 232 262
          226 253 223 255 280 251
          278 281 256 255 226 258
          256 227 254 257 248 277
          250 280 226 255 228 258
          277 248 275 278 231 229
          228 258 257 227 230 259
          254 251 253 283 228 229
          226 258 229 256 226 258
          227 256 229 259 259 230
          257 260 251 248 250 280
          237 235 234 264 253 251
          250 280 229 258 231 261
          234 232 231 261 251 280
          253 283 260 259 230 262
          234 235 232 264 231 232
          229 261 232 259 229 261
          233 262 235 265 265 294
          267 297 233 230 232 262
          260 230 233 262 235 233
          232 262 232 261 234 264
          262 233 260 263 289 291
          262 292 235 262 232 264
          256 254 253 283 283 254
          281 284 263 262 233 265
          238 236 235 265 236 233
          235 265 263 233 236 265
          287 286 257 289 235 264
          237 267 265 236 263 266
          265 267 238 268 268 266
          265 295 237 238 235 267
          238 265 235 267 239 236
          238 268 266 236 239 268
          236 265 238 268 266 265
          236 268 268 239 266 269
          241 270 243 273 274 276
          247 277 271 270 241 273
          257 254 256 286 277 279
          250 280 275 274 245 277
          271 273 244 274 243 244
          241 273 244 271 241 273
          278 277 248 280 272 242
          245 274 244 273 246 276
          280 282 253 283 249 247
          246 276 277 276 247 279
          246 247 244 276 247 274
          244 276 281 280 251 283
          275 245 248 277 247 276
          249 279 260 289 262 292
          252 250 249 279 280 279
          250 282 249 250 247 279
          250 277 247 279 283 285
          256 286 278 248 251 280
          250 279 252 282 259 257
          256 286 286 285 256 288
          255 253 252 282 284 254
          257 286 255 256 253 285
          286 257 284 287 252 253
          250 282 253 280 250 282
          281 251 254 283 286 288
          259 289 283 282 253 285
          254 283 256 286 253 282
          255 285 262 260 259 289
          258 256 255 285 260 257
          259 289 256 283 253 285
          289 288 259 291 256 285
          258 288 261 259 258 288
          287 257 260 289 262 291
          264 294 258 259 256 288
          259 286 256 288 267 265
          264 294 257 286 259 289
          289 260 287 290 259 288
          261 291 264 262 261 291
          290 289 260 292 261 262
          259 291 262 289 259 291
          263 260 262 292 290 260
          263 292 265 263 262 292
          292 291 262 294 292 263
          290 293 268 295 265 297
          264 265 262 294 265 292
          262 294 292 294 265 295
          267 268 265 297 295 294
          265 297 263 292 265 295
          293 292 263 295 266 263
          265 295 293 263 266 295
          295 297 268 298 295 266
          293 296 269 266 268 298
          296 266 269 298 266 295
          268 298 296 295 266 298
          298 269 296 299
        </DataArray>
        <DataArray type="Int64" Name="offsets" format="ascii" RangeMin="4" RangeMax="3880">
          4 8 12 16 20 24
          28 32 36 40 44 48
          52 56 60 64 68 72
          76 80 84 88 92 96
          100 104 108 112 116 120
          124 128 132 136 140 144
          148 152 156 160 164 168
          172 176 180 184 188 192
          196 200 204 208 212 216
          220 224 228 232 236 240
          244 248 252 256 260 264
          268 272 276 280 284 288
          292 296 300 304 308 312
          316 320 324 328 332 336
          340 344 348 352 356 360
          364 368 372 376 380 384
          388 392 396 400 404 408
          412 416 420 424 428 432
          436 440 444 448 452 456
          460 464 468 472 476 480
          484 488 492 496 500 504